 Running on titan10
 Entering Gaussian System, Link 0=g09
 Initial command:
 /opt/qcapps/g09/l1.exe /work/ohnishi/1477450706/Gau-26299.inp -scrdir=/work/ohnishi/1477450706/
 Entering Link 1 = /opt/qcapps/g09/l1.exe PID=     26300.
  
 Copyright (c) 1988,1990,1992,1993,1995,1998,2003,2009,2011,
            Gaussian, Inc.  All Rights Reserved.
  
 This is part of the Gaussian(R) 09 program.  It is based on
 the Gaussian(R) 03 system (copyright 2003, Gaussian, Inc.),
 the Gaussian(R) 98 system (copyright 1998, Gaussian, Inc.),
 the Gaussian(R) 94 system (copyright 1995, Gaussian, Inc.),
 the Gaussian 92(TM) system (copyright 1992, Gaussian, Inc.),
 the Gaussian 90(TM) system (copyright 1990, Gaussian, Inc.),
 the Gaussian 88(TM) system (copyright 1988, Gaussian, Inc.),
 the Gaussian 86(TM) system (copyright 1986, Carnegie Mellon
 University), and the Gaussian 82(TM) system (copyright 1983,
 Carnegie Mellon University). Gaussian is a federally registered
 trademark of Gaussian, Inc.
  
 This software contains proprietary and confidential information,
 including trade secrets, belonging to Gaussian, Inc.
  
 This software is provided under written license and may be
 used, copied, transmitted, or stored only in accord with that
 written license.
  
 The following legend is applicable only to US Government
 contracts under FAR:
  
                    RESTRICTED RIGHTS LEGEND
  
 Use, reproduction and disclosure by the US Government is
 subject to restrictions as set forth in subparagraphs (a)
 and (c) of the Commercial Computer Software - Restricted
 Rights clause in FAR 52.227-19.
  
 Gaussian, Inc.
 340 Quinnipiac St., Bldg. 40, Wallingford CT 06492
  
  
 ---------------------------------------------------------------
 Warning -- This program may not be used in any manner that
 competes with the business of Gaussian, Inc. or will provide
 assistance to any competitor of Gaussian, Inc.  The licensee
 of this program is prohibited from giving any competitor of
 Gaussian, Inc. access to this program.  By using this program,
 the user acknowledges that Gaussian, Inc. is engaged in the
 business of creating and licensing software in the field of
 computational chemistry and represents and warrants to the
 licensee that it is not a competitor of Gaussian, Inc. and that
 it will not use this program in any manner prohibited above.
 ---------------------------------------------------------------
  

 Cite this work as:
 Gaussian 09, Revision C.01,
 M. J. Frisch, G. W. Trucks, H. B. Schlegel, G. E. Scuseria, 
 M. A. Robb, J. R. Cheeseman, G. Scalmani, V. Barone, B. Mennucci, 
 G. A. Petersson, H. Nakatsuji, M. Caricato, X. Li, H. P. Hratchian, 
 A. F. Izmaylov, J. Bloino, G. Zheng, J. L. Sonnenberg, M. Hada, 
 M. Ehara, K. Toyota, R. Fukuda, J. Hasegawa, M. Ishida, T. Nakajima, 
 Y. Honda, O. Kitao, H. Nakai, T. Vreven, J. A. Montgomery, Jr., 
 J. E. Peralta, F. Ogliaro, M. Bearpark, J. J. Heyd, E. Brothers, 
 K. N. Kudin, V. N. Staroverov, T. Keith, R. Kobayashi, J. Normand, 
 K. Raghavachari, A. Rendell, J. C. Burant, S. S. Iyengar, J. Tomasi, 
 M. Cossi, N. Rega, J. M. Millam, M. Klene, J. E. Knox, J. B. Cross, 
 V. Bakken, C. Adamo, J. Jaramillo, R. Gomperts, R. E. Stratmann, 
 O. Yazyev, A. J. Austin, R. Cammi, C. Pomelli, J. W. Ochterski, 
 R. L. Martin, K. Morokuma, V. G. Zakrzewski, G. A. Voth, 
 P. Salvador, J. J. Dannenberg, S. Dapprich, A. D. Daniels, 
 O. Farkas, J. B. Foresman, J. V. Ortiz, J. Cioslowski, 
 and D. J. Fox, Gaussian, Inc., Wallingford CT, 2010.
 
 ******************************************
 Gaussian 09:  AM64L-G09RevC.01 23-Sep-2011
                26-Oct-2016 
 ******************************************
 %NprocShared=8
 Will use up to    8 processors via shared memory.
 %Mem=25712MB
 ----------------------------------------------------------------------
 #P B3PW91/GenECP SCFCon=7 SCFCyc=250 GFInput GFOldPrint Pseudo=Read Fr
 eq Integral=(Grid=UltraFine) Pop=Regular IOp(1/33=0,2/11=1,3/27=8,6/7=
 3)
 ----------------------------------------------------------------------
 1/10=4,30=1,38=1/1,3;
 2/11=1,12=2,17=6,18=5,40=1/2;
 3/5=7,11=2,16=1,17=8,24=11,25=1,27=8,30=1,71=2,74=-6,75=-5/1,2,3;
 4//1;
 5/5=2,6=7,7=250,38=5,98=1/2;
 8/6=4,10=90,11=11/1;
 11/6=1,8=1,9=11,15=111,16=1/1,2,10;
 10/6=1/2;
 6/7=3,18=1,28=1/1;
 7/8=1,10=1,25=1/1,2,3,16;
 1/10=4,30=1/3;
 99//99;
 Leave Link    1 at Wed Oct 26 11:58:26 2016, MaxMem= 3370123264 cpu:       0.6
 (Enter /opt/qcapps/g09/l101.exe)
 ---------
 Frequency
 ---------
 Charge =  0 Multiplicity = 1
 Symbolic Z-Matrix:
 Ti                   -1.56485   0.        1.35143 
 Ti                    1.56485   0.        1.35143 
 Ti                    0.        1.59733  -0.9816 
 Ti                    0.       -1.59733  -0.9816 
 O                     0.        0.        2.28751 
 O                     1.47572  -1.37226   0.33946 
 O                     1.47572   1.37226   0.33946 
 O                    -1.47572  -1.37226   0.33946 
 O                    -1.47572   1.37226   0.33946 
 O                     0.        0.       -1.88242 
 O                     0.        2.92763  -1.89849 
 O                     0.       -2.92763  -1.89849 
 
 NAtoms=     12 NQM=        0 NQMF=       0 NMMI=     12 NMMIF=      0
                NMic=       0 NMicF=      0.
                    Isotopes and Nuclear Properties:
 (Nuclear quadrupole moments (NQMom) in fm**2, nuclear magnetic moments (NMagM)
  in nuclear magnetons)

  Atom         1           2           3           4           5           6           7           8           9          10
 IAtWgt=          48          48          48          48          16          16          16          16          16          16
 AtmWgt=  47.9479467  47.9479467  47.9479467  47.9479467  15.9949146  15.9949146  15.9949146  15.9949146  15.9949146  15.9949146
 NucSpn=           0           0           0           0           0           0           0           0           0           0
 AtZEff=   0.0000000   0.0000000   0.0000000   0.0000000   0.0000000   0.0000000   0.0000000   0.0000000   0.0000000   0.0000000
 NQMom=    0.0000000   0.0000000   0.0000000   0.0000000   0.0000000   0.0000000   0.0000000   0.0000000   0.0000000   0.0000000
 NMagM=    0.0000000   0.0000000   0.0000000   0.0000000   0.0000000   0.0000000   0.0000000   0.0000000   0.0000000   0.0000000

  Atom        11          12
 IAtWgt=          16          16
 AtmWgt=  15.9949146  15.9949146
 NucSpn=           0           0
 AtZEff=   0.0000000   0.0000000
 NQMom=    0.0000000   0.0000000
 NMagM=    0.0000000   0.0000000
 Leave Link  101 at Wed Oct 26 11:58:26 2016, MaxMem= 3370123264 cpu:       0.8
 (Enter /opt/qcapps/g09/l103.exe)

 GradGradGradGradGradGradGradGradGradGradGradGradGradGradGradGradGradGrad
 Berny optimization.
 Initialization pass.
 Trust Radius=3.00D-01 FncErr=1.00D-07 GrdErr=1.00D-07
 Number of steps in this run=      2 maximum allowed number of steps=      2.
 GradGradGradGradGradGradGradGradGradGradGradGradGradGradGradGradGradGrad

 Leave Link  103 at Wed Oct 26 11:58:26 2016, MaxMem= 3370123264 cpu:       0.2
 (Enter /opt/qcapps/g09/l202.exe)
                          Input orientation:                          
 ---------------------------------------------------------------------
 Center     Atomic      Atomic             Coordinates (Angstroms)
 Number     Number       Type             X           Y           Z
 ---------------------------------------------------------------------
      1         22           0       -1.564845    0.000000    1.351425
      2         22           0        1.564845    0.000000    1.351425
      3         22           0        0.000000    1.597333   -0.981597
      4         22           0        0.000000   -1.597333   -0.981597
      5          8           0        0.000000    0.000000    2.287505
      6          8           0        1.475720   -1.372257    0.339461
      7          8           0        1.475720    1.372257    0.339461
      8          8           0       -1.475720   -1.372257    0.339461
      9          8           0       -1.475720    1.372257    0.339461
     10          8           0        0.000000    0.000000   -1.882417
     11          8           0        0.000000    2.927626   -1.898493
     12          8           0        0.000000   -2.927626   -1.898493
 ---------------------------------------------------------------------
                    Distance matrix (angstroms):
                    1          2          3          4          5
     1  Ti   0.000000
     2  Ti   3.129690   0.000000
     3  Ti   3.231595   3.231595   0.000000
     4  Ti   3.231595   3.231595   3.194666   0.000000
     5  O    1.823454   1.823454   3.638475   3.638475   0.000000
     6  O    3.486000   1.707367   3.569511   1.993390   2.802805
     7  O    3.486000   1.707367   1.993390   3.569511   2.802805
     8  O    1.707367   3.486000   3.569511   1.993390   2.802805
     9  O    1.707367   3.486000   1.993390   3.569511   2.802805
    10  O    3.592558   3.592558   1.833835   1.833835   4.169922
    11  O    4.645611   4.645611   1.615666   4.616920   5.108187
    12  O    4.645611   4.645611   4.616920   1.615666   5.108187
                    6          7          8          9         10
     6  O    0.000000
     7  O    2.744514   0.000000
     8  O    2.951440   4.030305   0.000000
     9  O    4.030305   2.951440   2.744514   0.000000
    10  O    2.999597   2.999597   2.999597   2.999597   0.000000
    11  O    5.067068   3.099252   5.067068   3.099252   2.927670
    12  O    3.099252   5.067068   3.099252   5.067068   2.927670
                   11         12
    11  O    0.000000
    12  O    5.855252   0.000000
 Stoichiometry    O8Ti4
 Framework group  C2V[C2(OO),SGV(O2Ti2),SGV'(Ti2),X(O4)]
 Deg. of freedom    10
 Full point group                 C2V     NOp   4
 Largest Abelian subgroup         C2V     NOp   4
 Largest concise Abelian subgroup C2V     NOp   4
                         Standard orientation:                         
 ---------------------------------------------------------------------
 Center     Atomic      Atomic             Coordinates (Angstroms)
 Number     Number       Type             X           Y           Z
 ---------------------------------------------------------------------
      1         22           0       -1.564845    0.000000    1.351425
      2         22           0        1.564845    0.000000    1.351425
      3         22           0        0.000000    1.597333   -0.981597
      4         22           0        0.000000   -1.597333   -0.981597
      5          8           0        0.000000    0.000000    2.287505
      6          8           0        1.475720   -1.372257    0.339461
      7          8           0        1.475720    1.372257    0.339461
      8          8           0       -1.475720   -1.372257    0.339461
      9          8           0       -1.475720    1.372257    0.339461
     10          8           0        0.000000    0.000000   -1.882417
     11          8           0        0.000000    2.927626   -1.898493
     12          8           0        0.000000   -2.927626   -1.898493
 ---------------------------------------------------------------------
 Rotational constants (GHZ):      0.5586063      0.4986494      0.4319855
 Leave Link  202 at Wed Oct 26 11:58:26 2016, MaxMem= 3370123264 cpu:       0.0
 (Enter /opt/qcapps/g09/l301.exe)
 General basis read from cards:  (5D, 7F)
 Centers:   1  2  3  4
 SDDAll
 ****
 Centers:   5  6  7  8  9 10 11 12
 6-31G(d,p)
 ****
 ======================================================================================================
                                       Pseudopotential Parameters
 ======================================================================================================
  Center     Atomic      Valence      Angular      Power
  Number     Number     Electrons     Momentum     of R      Exponent        Coefficient   SO-Coeffient
 ======================================================================================================
    1         22           12
                                      F and up 
                                                     2        1.0000000        0.00000000    0.00000000
                                      S - F
                                                     2       13.0100000      158.24159300    0.00000000
                                                     2        5.8620000       17.51182400    0.00000000
                                      P - F
                                                     2       12.4600000       95.23512700    0.00000000
                                                     2        5.2170000       10.04785600    0.00000000
                                      D - F
                                                     2       15.3500000      -17.56886100    0.00000000
                                                     2        4.9800000       -0.58725600    0.00000000
    2         22           12
                                      F and up 
                                                     2        1.0000000        0.00000000    0.00000000
                                      S - F
                                                     2       13.0100000      158.24159300    0.00000000
                                                     2        5.8620000       17.51182400    0.00000000
                                      P - F
                                                     2       12.4600000       95.23512700    0.00000000
                                                     2        5.2170000       10.04785600    0.00000000
                                      D - F
                                                     2       15.3500000      -17.56886100    0.00000000
                                                     2        4.9800000       -0.58725600    0.00000000
    3         22           12
                                      F and up 
                                                     2        1.0000000        0.00000000    0.00000000
                                      S - F
                                                     2       13.0100000      158.24159300    0.00000000
                                                     2        5.8620000       17.51182400    0.00000000
                                      P - F
                                                     2       12.4600000       95.23512700    0.00000000
                                                     2        5.2170000       10.04785600    0.00000000
                                      D - F
                                                     2       15.3500000      -17.56886100    0.00000000
                                                     2        4.9800000       -0.58725600    0.00000000
    4         22           12
                                      F and up 
                                                     2        1.0000000        0.00000000    0.00000000
                                      S - F
                                                     2       13.0100000      158.24159300    0.00000000
                                                     2        5.8620000       17.51182400    0.00000000
                                      P - F
                                                     2       12.4600000       95.23512700    0.00000000
                                                     2        5.2170000       10.04785600    0.00000000
                                      D - F
                                                     2       15.3500000      -17.56886100    0.00000000
                                                     2        4.9800000       -0.58725600    0.00000000
    5          8
                                   No pseudopotential on this center.
    6          8
                                   No pseudopotential on this center.
    7          8
                                   No pseudopotential on this center.
    8          8
                                   No pseudopotential on this center.
    9          8
                                   No pseudopotential on this center.
   10          8
                                   No pseudopotential on this center.
   11          8
                                   No pseudopotential on this center.
   12          8
                                   No pseudopotential on this center.
 ======================================================================================================
 Ernie: Thresh=  0.10000D-02 Tol=  0.10000D-05 Strict=F.
 AO basis set in the form of general basis input (Overlap normalization):
      1 0
 S   3 1.00       0.000000000000
      0.1078036500D+02  0.1783892477D+01
      0.9717013000D+01 -0.2000689535D+01
      0.4507755000D+01 -0.7563332022D+00
 S   1 1.00       0.000000000000
      0.1246708000D+01  0.1000000000D+01
 S   1 1.00       0.000000000000
      0.5087070000D+00  0.1000000000D+01
 S   1 1.00       0.000000000000
      0.7343800000D-01  0.1000000000D+01
 S   1 1.00       0.000000000000
      0.3004800000D-01  0.1000000000D+01
 S   1 1.00       0.000000000000
      0.1000000000D-01  0.1000000000D+01
 P   2 1.00       0.000000000000
      0.1756638100D+02  0.8860101480D-01
      0.7705844000D+01 -0.1070746179D+01
 P   2 1.00       0.000000000000
      0.3329138000D+01  0.2001088977D+00
      0.1308104000D+01  0.8379855716D+00
 P   1 1.00       0.000000000000
      0.4544820000D+00  0.1000000000D+01
 P   1 1.00       0.000000000000
      0.7177200000D-01  0.1000000000D+01
 P   1 1.00       0.000000000000
      0.2378400000D-01  0.1000000000D+01
 D   4 1.00       0.000000000000
      0.1951919400D+02  0.3581400317D-01
      0.5864613000D+01  0.1723730152D+00
      0.1928038000D+01  0.4251360376D+00
      0.6065630000D+00  0.6025950533D+00
 D   1 1.00       0.000000000000
      0.1639610000D+00  0.1000000000D+01
 D   1 1.00       0.000000000000
      0.5000000000D-01  0.1000000000D+01
 F   1 1.00       0.000000000000
      0.5000000000D+00  0.1000000000D+01
 ****
      2 0
 S   3 1.00       0.000000000000
      0.1078036500D+02  0.1783892477D+01
      0.9717013000D+01 -0.2000689535D+01
      0.4507755000D+01 -0.7563332022D+00
 S   1 1.00       0.000000000000
      0.1246708000D+01  0.1000000000D+01
 S   1 1.00       0.000000000000
      0.5087070000D+00  0.1000000000D+01
 S   1 1.00       0.000000000000
      0.7343800000D-01  0.1000000000D+01
 S   1 1.00       0.000000000000
      0.3004800000D-01  0.1000000000D+01
 S   1 1.00       0.000000000000
      0.1000000000D-01  0.1000000000D+01
 P   2 1.00       0.000000000000
      0.1756638100D+02  0.8860101480D-01
      0.7705844000D+01 -0.1070746179D+01
 P   2 1.00       0.000000000000
      0.3329138000D+01  0.2001088977D+00
      0.1308104000D+01  0.8379855716D+00
 P   1 1.00       0.000000000000
      0.4544820000D+00  0.1000000000D+01
 P   1 1.00       0.000000000000
      0.7177200000D-01  0.1000000000D+01
 P   1 1.00       0.000000000000
      0.2378400000D-01  0.1000000000D+01
 D   4 1.00       0.000000000000
      0.1951919400D+02  0.3581400317D-01
      0.5864613000D+01  0.1723730152D+00
      0.1928038000D+01  0.4251360376D+00
      0.6065630000D+00  0.6025950533D+00
 D   1 1.00       0.000000000000
      0.1639610000D+00  0.1000000000D+01
 D   1 1.00       0.000000000000
      0.5000000000D-01  0.1000000000D+01
 F   1 1.00       0.000000000000
      0.5000000000D+00  0.1000000000D+01
 ****
      3 0
 S   3 1.00       0.000000000000
      0.1078036500D+02  0.1783892477D+01
      0.9717013000D+01 -0.2000689535D+01
      0.4507755000D+01 -0.7563332022D+00
 S   1 1.00       0.000000000000
      0.1246708000D+01  0.1000000000D+01
 S   1 1.00       0.000000000000
      0.5087070000D+00  0.1000000000D+01
 S   1 1.00       0.000000000000
      0.7343800000D-01  0.1000000000D+01
 S   1 1.00       0.000000000000
      0.3004800000D-01  0.1000000000D+01
 S   1 1.00       0.000000000000
      0.1000000000D-01  0.1000000000D+01
 P   2 1.00       0.000000000000
      0.1756638100D+02  0.8860101480D-01
      0.7705844000D+01 -0.1070746179D+01
 P   2 1.00       0.000000000000
      0.3329138000D+01  0.2001088977D+00
      0.1308104000D+01  0.8379855716D+00
 P   1 1.00       0.000000000000
      0.4544820000D+00  0.1000000000D+01
 P   1 1.00       0.000000000000
      0.7177200000D-01  0.1000000000D+01
 P   1 1.00       0.000000000000
      0.2378400000D-01  0.1000000000D+01
 D   4 1.00       0.000000000000
      0.1951919400D+02  0.3581400317D-01
      0.5864613000D+01  0.1723730152D+00
      0.1928038000D+01  0.4251360376D+00
      0.6065630000D+00  0.6025950533D+00
 D   1 1.00       0.000000000000
      0.1639610000D+00  0.1000000000D+01
 D   1 1.00       0.000000000000
      0.5000000000D-01  0.1000000000D+01
 F   1 1.00       0.000000000000
      0.5000000000D+00  0.1000000000D+01
 ****
      4 0
 S   3 1.00       0.000000000000
      0.1078036500D+02  0.1783892477D+01
      0.9717013000D+01 -0.2000689535D+01
      0.4507755000D+01 -0.7563332022D+00
 S   1 1.00       0.000000000000
      0.1246708000D+01  0.1000000000D+01
 S   1 1.00       0.000000000000
      0.5087070000D+00  0.1000000000D+01
 S   1 1.00       0.000000000000
      0.7343800000D-01  0.1000000000D+01
 S   1 1.00       0.000000000000
      0.3004800000D-01  0.1000000000D+01
 S   1 1.00       0.000000000000
      0.1000000000D-01  0.1000000000D+01
 P   2 1.00       0.000000000000
      0.1756638100D+02  0.8860101480D-01
      0.7705844000D+01 -0.1070746179D+01
 P   2 1.00       0.000000000000
      0.3329138000D+01  0.2001088977D+00
      0.1308104000D+01  0.8379855716D+00
 P   1 1.00       0.000000000000
      0.4544820000D+00  0.1000000000D+01
 P   1 1.00       0.000000000000
      0.7177200000D-01  0.1000000000D+01
 P   1 1.00       0.000000000000
      0.2378400000D-01  0.1000000000D+01
 D   4 1.00       0.000000000000
      0.1951919400D+02  0.3581400317D-01
      0.5864613000D+01  0.1723730152D+00
      0.1928038000D+01  0.4251360376D+00
      0.6065630000D+00  0.6025950533D+00
 D   1 1.00       0.000000000000
      0.1639610000D+00  0.1000000000D+01
 D   1 1.00       0.000000000000
      0.5000000000D-01  0.1000000000D+01
 F   1 1.00       0.000000000000
      0.5000000000D+00  0.1000000000D+01
 ****
      5 0
 S   6 1.00       0.000000000000
      0.5484671660D+04  0.1831074430D-02
      0.8252349460D+03  0.1395017220D-01
      0.1880469580D+03  0.6844507810D-01
      0.5296450000D+02  0.2327143360D+00
      0.1689757040D+02  0.4701928980D+00
      0.5799635340D+01  0.3585208530D+00
 SP   3 1.00       0.000000000000
      0.1553961625D+02 -0.1107775495D+00  0.7087426823D-01
      0.3599933586D+01 -0.1480262627D+00  0.3397528391D+00
      0.1013761750D+01  0.1130767015D+01  0.7271585773D+00
 SP   1 1.00       0.000000000000
      0.2700058226D+00  0.1000000000D+01  0.1000000000D+01
 D   1 1.00       0.000000000000
      0.8000000000D+00  0.1000000000D+01
 ****
      6 0
 S   6 1.00       0.000000000000
      0.5484671660D+04  0.1831074430D-02
      0.8252349460D+03  0.1395017220D-01
      0.1880469580D+03  0.6844507810D-01
      0.5296450000D+02  0.2327143360D+00
      0.1689757040D+02  0.4701928980D+00
      0.5799635340D+01  0.3585208530D+00
 SP   3 1.00       0.000000000000
      0.1553961625D+02 -0.1107775495D+00  0.7087426823D-01
      0.3599933586D+01 -0.1480262627D+00  0.3397528391D+00
      0.1013761750D+01  0.1130767015D+01  0.7271585773D+00
 SP   1 1.00       0.000000000000
      0.2700058226D+00  0.1000000000D+01  0.1000000000D+01
 D   1 1.00       0.000000000000
      0.8000000000D+00  0.1000000000D+01
 ****
      7 0
 S   6 1.00       0.000000000000
      0.5484671660D+04  0.1831074430D-02
      0.8252349460D+03  0.1395017220D-01
      0.1880469580D+03  0.6844507810D-01
      0.5296450000D+02  0.2327143360D+00
      0.1689757040D+02  0.4701928980D+00
      0.5799635340D+01  0.3585208530D+00
 SP   3 1.00       0.000000000000
      0.1553961625D+02 -0.1107775495D+00  0.7087426823D-01
      0.3599933586D+01 -0.1480262627D+00  0.3397528391D+00
      0.1013761750D+01  0.1130767015D+01  0.7271585773D+00
 SP   1 1.00       0.000000000000
      0.2700058226D+00  0.1000000000D+01  0.1000000000D+01
 D   1 1.00       0.000000000000
      0.8000000000D+00  0.1000000000D+01
 ****
      8 0
 S   6 1.00       0.000000000000
      0.5484671660D+04  0.1831074430D-02
      0.8252349460D+03  0.1395017220D-01
      0.1880469580D+03  0.6844507810D-01
      0.5296450000D+02  0.2327143360D+00
      0.1689757040D+02  0.4701928980D+00
      0.5799635340D+01  0.3585208530D+00
 SP   3 1.00       0.000000000000
      0.1553961625D+02 -0.1107775495D+00  0.7087426823D-01
      0.3599933586D+01 -0.1480262627D+00  0.3397528391D+00
      0.1013761750D+01  0.1130767015D+01  0.7271585773D+00
 SP   1 1.00       0.000000000000
      0.2700058226D+00  0.1000000000D+01  0.1000000000D+01
 D   1 1.00       0.000000000000
      0.8000000000D+00  0.1000000000D+01
 ****
      9 0
 S   6 1.00       0.000000000000
      0.5484671660D+04  0.1831074430D-02
      0.8252349460D+03  0.1395017220D-01
      0.1880469580D+03  0.6844507810D-01
      0.5296450000D+02  0.2327143360D+00
      0.1689757040D+02  0.4701928980D+00
      0.5799635340D+01  0.3585208530D+00
 SP   3 1.00       0.000000000000
      0.1553961625D+02 -0.1107775495D+00  0.7087426823D-01
      0.3599933586D+01 -0.1480262627D+00  0.3397528391D+00
      0.1013761750D+01  0.1130767015D+01  0.7271585773D+00
 SP   1 1.00       0.000000000000
      0.2700058226D+00  0.1000000000D+01  0.1000000000D+01
 D   1 1.00       0.000000000000
      0.8000000000D+00  0.1000000000D+01
 ****
     10 0
 S   6 1.00       0.000000000000
      0.5484671660D+04  0.1831074430D-02
      0.8252349460D+03  0.1395017220D-01
      0.1880469580D+03  0.6844507810D-01
      0.5296450000D+02  0.2327143360D+00
      0.1689757040D+02  0.4701928980D+00
      0.5799635340D+01  0.3585208530D+00
 SP   3 1.00       0.000000000000
      0.1553961625D+02 -0.1107775495D+00  0.7087426823D-01
      0.3599933586D+01 -0.1480262627D+00  0.3397528391D+00
      0.1013761750D+01  0.1130767015D+01  0.7271585773D+00
 SP   1 1.00       0.000000000000
      0.2700058226D+00  0.1000000000D+01  0.1000000000D+01
 D   1 1.00       0.000000000000
      0.8000000000D+00  0.1000000000D+01
 ****
     11 0
 S   6 1.00       0.000000000000
      0.5484671660D+04  0.1831074430D-02
      0.8252349460D+03  0.1395017220D-01
      0.1880469580D+03  0.6844507810D-01
      0.5296450000D+02  0.2327143360D+00
      0.1689757040D+02  0.4701928980D+00
      0.5799635340D+01  0.3585208530D+00
 SP   3 1.00       0.000000000000
      0.1553961625D+02 -0.1107775495D+00  0.7087426823D-01
      0.3599933586D+01 -0.1480262627D+00  0.3397528391D+00
      0.1013761750D+01  0.1130767015D+01  0.7271585773D+00
 SP   1 1.00       0.000000000000
      0.2700058226D+00  0.1000000000D+01  0.1000000000D+01
 D   1 1.00       0.000000000000
      0.8000000000D+00  0.1000000000D+01
 ****
     12 0
 S   6 1.00       0.000000000000
      0.5484671660D+04  0.1831074430D-02
      0.8252349460D+03  0.1395017220D-01
      0.1880469580D+03  0.6844507810D-01
      0.5296450000D+02  0.2327143360D+00
      0.1689757040D+02  0.4701928980D+00
      0.5799635340D+01  0.3585208530D+00
 SP   3 1.00       0.000000000000
      0.1553961625D+02 -0.1107775495D+00  0.7087426823D-01
      0.3599933586D+01 -0.1480262627D+00  0.3397528391D+00
      0.1013761750D+01  0.1130767015D+01  0.7271585773D+00
 SP   1 1.00       0.000000000000
      0.2700058226D+00  0.1000000000D+01  0.1000000000D+01
 D   1 1.00       0.000000000000
      0.8000000000D+00  0.1000000000D+01
 ****

 ***********************************************************************************************************************************
 *             ATOMIC CENTER             *        ATOMIC ORBITAL       *                     GAUSSIAN FUNCTIONS                    *
 ***********************************************************************************************************************************
 *                                       * FUNCTION    SHELL    SCALE  *                                                           *
 *    ATOM   X-COORD  Y-COORD  Z-COORD   *  NUMBER     TYPE     FACTOR *  EXPONENT    S-COEF      P-COEF      D-COEF      F-COEF   *
 ***********************************************************************************************************************************
 *     Ti    -2.95713  0.00000  2.55382                                                                                            *
+                                                1   S           1.00                                                               
+                                                                      0.107804D+020.756404D+010.000000D+000.000000D+000.000000D+00 
 *                                                                     0.971701D+01-.784765D+010.000000D+000.000000D+000.000000D+00*
 *                                                                     0.450776D+01-.166761D+010.000000D+000.000000D+000.000000D+00*
 *                                               2   S           1.00                                                              *
+                                                                      0.124671D+010.840879D+000.000000D+000.000000D+000.000000D+00 
 *                                               3   S           1.00                                                              *
+                                                                      0.508707D+000.429300D+000.000000D+000.000000D+000.000000D+00 
 *                                               4   S           1.00                                                              *
+                                                                      0.734380D-010.100543D+000.000000D+000.000000D+000.000000D+00 
 *                                               5   S           1.00                                                              *
+                                                                      0.300480D-010.514365D-010.000000D+000.000000D+000.000000D+00 
 *                                               6   S           1.00                                                              *
+                                                                      0.100000D-010.225377D-010.000000D+000.000000D+000.000000D+00 
 *                                           7-  9   P           1.00                                                              *
+                                                                      0.175664D+020.000000D+000.454184D+010.000000D+000.000000D+00 
 *                                                                     0.770584D+010.000000D+00-.195953D+020.000000D+000.000000D+00*
 *                                          10- 12   P           1.00                                                              *
+                                                                      0.332914D+010.000000D+000.128269D+010.000000D+000.000000D+00 
 *                                                                     0.130810D+010.000000D+000.167101D+010.000000D+000.000000D+00*
 *                                          13- 15   P           1.00                                                              *
+                                                                      0.454482D+000.000000D+000.531907D+000.000000D+000.000000D+00 
 *                                          16- 18   P           1.00                                                              *
+                                                                      0.717720D-010.000000D+000.529522D-010.000000D+000.000000D+00 
 *                                          19- 21   P           1.00                                                              *
+                                                                      0.237840D-010.000000D+000.133136D-010.000000D+000.000000D+00 
 *                                          22- 26   D           1.00                                                              *
+                                                                      0.195192D+020.000000D+000.000000D+000.106849D+020.000000D+00 
 *                                                                     0.586461D+010.000000D+000.000000D+000.627043D+010.000000D+00*
 *                                                                     0.192804D+010.000000D+000.000000D+000.220744D+010.000000D+00*
 *                                                                     0.606563D+000.000000D+000.000000D+000.413493D+000.000000D+00*
 *                                          27- 31   D           1.00                                                              *
+                                                                      0.163961D+000.000000D+000.000000D+000.695353D-010.000000D+00 
 *                                          32- 36   D           1.00                                                              *
+                                                                      0.500000D-010.000000D+000.000000D+000.870176D-020.000000D+00 
 *                                          31- 43   F           1.00                                                              *
+                                                                      0.500000D+000.000000D+000.000000D+000.000000D+000.309483D+00 
 *---------------------------------------------------------------------------------------------------------------------------------*
 *     Ti     2.95713  0.00000  2.55382                                                                                            *
+                                               44   S           1.00                                                               
+                                                                      0.107804D+020.756404D+010.000000D+000.000000D+000.000000D+00 
 *                                                                     0.971701D+01-.784765D+010.000000D+000.000000D+000.000000D+00*
 *                                                                     0.450776D+01-.166761D+010.000000D+000.000000D+000.000000D+00*
 *                                              45   S           1.00                                                              *
+                                                                      0.124671D+010.840879D+000.000000D+000.000000D+000.000000D+00 
 *                                              46   S           1.00                                                              *
+                                                                      0.508707D+000.429300D+000.000000D+000.000000D+000.000000D+00 
 *                                              47   S           1.00                                                              *
+                                                                      0.734380D-010.100543D+000.000000D+000.000000D+000.000000D+00 
 *                                              48   S           1.00                                                              *
+                                                                      0.300480D-010.514365D-010.000000D+000.000000D+000.000000D+00 
 *                                              49   S           1.00                                                              *
+                                                                      0.100000D-010.225377D-010.000000D+000.000000D+000.000000D+00 
 *                                          50- 52   P           1.00                                                              *
+                                                                      0.175664D+020.000000D+000.454184D+010.000000D+000.000000D+00 
 *                                                                     0.770584D+010.000000D+00-.195953D+020.000000D+000.000000D+00*
 *                                          53- 55   P           1.00                                                              *
+                                                                      0.332914D+010.000000D+000.128269D+010.000000D+000.000000D+00 
 *                                                                     0.130810D+010.000000D+000.167101D+010.000000D+000.000000D+00*
 *                                          56- 58   P           1.00                                                              *
+                                                                      0.454482D+000.000000D+000.531907D+000.000000D+000.000000D+00 
 *                                          59- 61   P           1.00                                                              *
+                                                                      0.717720D-010.000000D+000.529522D-010.000000D+000.000000D+00 
 *                                          62- 64   P           1.00                                                              *
+                                                                      0.237840D-010.000000D+000.133136D-010.000000D+000.000000D+00 
 *                                          65- 69   D           1.00                                                              *
+                                                                      0.195192D+020.000000D+000.000000D+000.106849D+020.000000D+00 
 *                                                                     0.586461D+010.000000D+000.000000D+000.627043D+010.000000D+00*
 *                                                                     0.192804D+010.000000D+000.000000D+000.220744D+010.000000D+00*
 *                                                                     0.606563D+000.000000D+000.000000D+000.413493D+000.000000D+00*
 *                                          70- 74   D           1.00                                                              *
+                                                                      0.163961D+000.000000D+000.000000D+000.695353D-010.000000D+00 
 *                                          75- 79   D           1.00                                                              *
+                                                                      0.500000D-010.000000D+000.000000D+000.870176D-020.000000D+00 
 *                                          74- 86   F           1.00                                                              *
+                                                                      0.500000D+000.000000D+000.000000D+000.000000D+000.309483D+00 
 *---------------------------------------------------------------------------------------------------------------------------------*
 *     Ti     0.00000  3.01852 -1.85495                                                                                            *
+                                               87   S           1.00                                                               
+                                                                      0.107804D+020.756404D+010.000000D+000.000000D+000.000000D+00 
 *                                                                     0.971701D+01-.784765D+010.000000D+000.000000D+000.000000D+00*
 *                                                                     0.450776D+01-.166761D+010.000000D+000.000000D+000.000000D+00*
 *                                              88   S           1.00                                                              *
+                                                                      0.124671D+010.840879D+000.000000D+000.000000D+000.000000D+00 
 *                                              89   S           1.00                                                              *
+                                                                      0.508707D+000.429300D+000.000000D+000.000000D+000.000000D+00 
 *                                              90   S           1.00                                                              *
+                                                                      0.734380D-010.100543D+000.000000D+000.000000D+000.000000D+00 
 *                                              91   S           1.00                                                              *
+                                                                      0.300480D-010.514365D-010.000000D+000.000000D+000.000000D+00 
 *                                              92   S           1.00                                                              *
+                                                                      0.100000D-010.225377D-010.000000D+000.000000D+000.000000D+00 
 *                                          93- 95   P           1.00                                                              *
+                                                                      0.175664D+020.000000D+000.454184D+010.000000D+000.000000D+00 
 *                                                                     0.770584D+010.000000D+00-.195953D+020.000000D+000.000000D+00*
 *                                          96- 98   P           1.00                                                              *
+                                                                      0.332914D+010.000000D+000.128269D+010.000000D+000.000000D+00 
 *                                                                     0.130810D+010.000000D+000.167101D+010.000000D+000.000000D+00*
 *                                          99-101   P           1.00                                                              *
+                                                                      0.454482D+000.000000D+000.531907D+000.000000D+000.000000D+00 
 *                                         102-104   P           1.00                                                              *
+                                                                      0.717720D-010.000000D+000.529522D-010.000000D+000.000000D+00 
 *                                         105-107   P           1.00                                                              *
+                                                                      0.237840D-010.000000D+000.133136D-010.000000D+000.000000D+00 
 *                                         108-112   D           1.00                                                              *
+                                                                      0.195192D+020.000000D+000.000000D+000.106849D+020.000000D+00 
 *                                                                     0.586461D+010.000000D+000.000000D+000.627043D+010.000000D+00*
 *                                                                     0.192804D+010.000000D+000.000000D+000.220744D+010.000000D+00*
 *                                                                     0.606563D+000.000000D+000.000000D+000.413493D+000.000000D+00*
 *                                         113-117   D           1.00                                                              *
+                                                                      0.163961D+000.000000D+000.000000D+000.695353D-010.000000D+00 
 *                                         118-122   D           1.00                                                              *
+                                                                      0.500000D-010.000000D+000.000000D+000.870176D-020.000000D+00 
 *                                         117-129   F           1.00                                                              *
+                                                                      0.500000D+000.000000D+000.000000D+000.000000D+000.309483D+00 
 *---------------------------------------------------------------------------------------------------------------------------------*
 *     Ti     0.00000 -3.01852 -1.85495                                                                                            *
+                                              130   S           1.00                                                               
+                                                                      0.107804D+020.756404D+010.000000D+000.000000D+000.000000D+00 
 *                                                                     0.971701D+01-.784765D+010.000000D+000.000000D+000.000000D+00*
 *                                                                     0.450776D+01-.166761D+010.000000D+000.000000D+000.000000D+00*
 *                                             131   S           1.00                                                              *
+                                                                      0.124671D+010.840879D+000.000000D+000.000000D+000.000000D+00 
 *                                             132   S           1.00                                                              *
+                                                                      0.508707D+000.429300D+000.000000D+000.000000D+000.000000D+00 
 *                                             133   S           1.00                                                              *
+                                                                      0.734380D-010.100543D+000.000000D+000.000000D+000.000000D+00 
 *                                             134   S           1.00                                                              *
+                                                                      0.300480D-010.514365D-010.000000D+000.000000D+000.000000D+00 
 *                                             135   S           1.00                                                              *
+                                                                      0.100000D-010.225377D-010.000000D+000.000000D+000.000000D+00 
 *                                         136-138   P           1.00                                                              *
+                                                                      0.175664D+020.000000D+000.454184D+010.000000D+000.000000D+00 
 *                                                                     0.770584D+010.000000D+00-.195953D+020.000000D+000.000000D+00*
 *                                         139-141   P           1.00                                                              *
+                                                                      0.332914D+010.000000D+000.128269D+010.000000D+000.000000D+00 
 *                                                                     0.130810D+010.000000D+000.167101D+010.000000D+000.000000D+00*
 *                                         142-144   P           1.00                                                              *
+                                                                      0.454482D+000.000000D+000.531907D+000.000000D+000.000000D+00 
 *                                         145-147   P           1.00                                                              *
+                                                                      0.717720D-010.000000D+000.529522D-010.000000D+000.000000D+00 
 *                                         148-150   P           1.00                                                              *
+                                                                      0.237840D-010.000000D+000.133136D-010.000000D+000.000000D+00 
 *                                         151-155   D           1.00                                                              *
+                                                                      0.195192D+020.000000D+000.000000D+000.106849D+020.000000D+00 
 *                                                                     0.586461D+010.000000D+000.000000D+000.627043D+010.000000D+00*
 *                                                                     0.192804D+010.000000D+000.000000D+000.220744D+010.000000D+00*
 *                                                                     0.606563D+000.000000D+000.000000D+000.413493D+000.000000D+00*
 *                                         156-160   D           1.00                                                              *
+                                                                      0.163961D+000.000000D+000.000000D+000.695353D-010.000000D+00 
 *                                         161-165   D           1.00                                                              *
+                                                                      0.500000D-010.000000D+000.000000D+000.870176D-020.000000D+00 
 *                                         160-172   F           1.00                                                              *
+                                                                      0.500000D+000.000000D+000.000000D+000.000000D+000.309483D+00 
 *---------------------------------------------------------------------------------------------------------------------------------*
 *     O      0.00000  0.00000  4.32276                                                                                            *
+                                              173   S           1.00                                                               
+                                                                      0.548467D+040.831724D+000.000000D+000.000000D+000.000000D+00 
 *                                                                     0.825235D+030.153082D+010.000000D+000.000000D+000.000000D+00*
 *                                                                     0.188047D+030.247715D+010.000000D+000.000000D+000.000000D+00*
 *                                                                     0.529645D+020.325628D+010.000000D+000.000000D+000.000000D+00*
 *                                                                     0.168976D+020.279289D+010.000000D+000.000000D+000.000000D+00*
 *                                                                     0.579964D+010.954938D+000.000000D+000.000000D+000.000000D+00*
 *                                         174-177   SP          1.00                                                              *
+                                                                      0.155396D+02-.617934D+000.311694D+010.000000D+000.000000D+00 
 *                                                                     0.359993D+01-.275721D+000.240144D+010.000000D+000.000000D+00*
 *                                                                     0.101376D+010.814208D+000.105436D+010.000000D+000.000000D+00*
 *                                         178-181   SP          1.00                                                              *
+                                                                      0.270006D+000.266956D+000.277432D+000.000000D+000.000000D+00 
 *                                         182-186   D           1.00                                                              *
+                                                                      0.800000D+000.000000D+000.000000D+000.111382D+010.000000D+00 
 *---------------------------------------------------------------------------------------------------------------------------------*
 *     O      2.78871 -2.59319  0.64149                                                                                            *
+                                              187   S           1.00                                                               
+                                                                      0.548467D+040.831724D+000.000000D+000.000000D+000.000000D+00 
 *                                                                     0.825235D+030.153082D+010.000000D+000.000000D+000.000000D+00*
 *                                                                     0.188047D+030.247715D+010.000000D+000.000000D+000.000000D+00*
 *                                                                     0.529645D+020.325628D+010.000000D+000.000000D+000.000000D+00*
 *                                                                     0.168976D+020.279289D+010.000000D+000.000000D+000.000000D+00*
 *                                                                     0.579964D+010.954938D+000.000000D+000.000000D+000.000000D+00*
 *                                         188-191   SP          1.00                                                              *
+                                                                      0.155396D+02-.617934D+000.311694D+010.000000D+000.000000D+00 
 *                                                                     0.359993D+01-.275721D+000.240144D+010.000000D+000.000000D+00*
 *                                                                     0.101376D+010.814208D+000.105436D+010.000000D+000.000000D+00*
 *                                         192-195   SP          1.00                                                              *
+                                                                      0.270006D+000.266956D+000.277432D+000.000000D+000.000000D+00 
 *                                         196-200   D           1.00                                                              *
+                                                                      0.800000D+000.000000D+000.000000D+000.111382D+010.000000D+00 
 *---------------------------------------------------------------------------------------------------------------------------------*
 *     O      2.78871  2.59319  0.64149                                                                                            *
+                                              201   S           1.00                                                               
+                                                                      0.548467D+040.831724D+000.000000D+000.000000D+000.000000D+00 
 *                                                                     0.825235D+030.153082D+010.000000D+000.000000D+000.000000D+00*
 *                                                                     0.188047D+030.247715D+010.000000D+000.000000D+000.000000D+00*
 *                                                                     0.529645D+020.325628D+010.000000D+000.000000D+000.000000D+00*
 *                                                                     0.168976D+020.279289D+010.000000D+000.000000D+000.000000D+00*
 *                                                                     0.579964D+010.954938D+000.000000D+000.000000D+000.000000D+00*
 *                                         202-205   SP          1.00                                                              *
+                                                                      0.155396D+02-.617934D+000.311694D+010.000000D+000.000000D+00 
 *                                                                     0.359993D+01-.275721D+000.240144D+010.000000D+000.000000D+00*
 *                                                                     0.101376D+010.814208D+000.105436D+010.000000D+000.000000D+00*
 *                                         206-209   SP          1.00                                                              *
+                                                                      0.270006D+000.266956D+000.277432D+000.000000D+000.000000D+00 
 *                                         210-214   D           1.00                                                              *
+                                                                      0.800000D+000.000000D+000.000000D+000.111382D+010.000000D+00 
 *---------------------------------------------------------------------------------------------------------------------------------*
 *     O     -2.78871 -2.59319  0.64149                                                                                            *
+                                              215   S           1.00                                                               
+                                                                      0.548467D+040.831724D+000.000000D+000.000000D+000.000000D+00 
 *                                                                     0.825235D+030.153082D+010.000000D+000.000000D+000.000000D+00*
 *                                                                     0.188047D+030.247715D+010.000000D+000.000000D+000.000000D+00*
 *                                                                     0.529645D+020.325628D+010.000000D+000.000000D+000.000000D+00*
 *                                                                     0.168976D+020.279289D+010.000000D+000.000000D+000.000000D+00*
 *                                                                     0.579964D+010.954938D+000.000000D+000.000000D+000.000000D+00*
 *                                         216-219   SP          1.00                                                              *
+                                                                      0.155396D+02-.617934D+000.311694D+010.000000D+000.000000D+00 
 *                                                                     0.359993D+01-.275721D+000.240144D+010.000000D+000.000000D+00*
 *                                                                     0.101376D+010.814208D+000.105436D+010.000000D+000.000000D+00*
 *                                         220-223   SP          1.00                                                              *
+                                                                      0.270006D+000.266956D+000.277432D+000.000000D+000.000000D+00 
 *                                         224-228   D           1.00                                                              *
+                                                                      0.800000D+000.000000D+000.000000D+000.111382D+010.000000D+00 
 *---------------------------------------------------------------------------------------------------------------------------------*
 *     O     -2.78871  2.59319  0.64149                                                                                            *
+                                              229   S           1.00                                                               
+                                                                      0.548467D+040.831724D+000.000000D+000.000000D+000.000000D+00 
 *                                                                     0.825235D+030.153082D+010.000000D+000.000000D+000.000000D+00*
 *                                                                     0.188047D+030.247715D+010.000000D+000.000000D+000.000000D+00*
 *                                                                     0.529645D+020.325628D+010.000000D+000.000000D+000.000000D+00*
 *                                                                     0.168976D+020.279289D+010.000000D+000.000000D+000.000000D+00*
 *                                                                     0.579964D+010.954938D+000.000000D+000.000000D+000.000000D+00*
 *                                         230-233   SP          1.00                                                              *
+                                                                      0.155396D+02-.617934D+000.311694D+010.000000D+000.000000D+00 
 *                                                                     0.359993D+01-.275721D+000.240144D+010.000000D+000.000000D+00*
 *                                                                     0.101376D+010.814208D+000.105436D+010.000000D+000.000000D+00*
 *                                         234-237   SP          1.00                                                              *
+                                                                      0.270006D+000.266956D+000.277432D+000.000000D+000.000000D+00 
 *                                         238-242   D           1.00                                                              *
+                                                                      0.800000D+000.000000D+000.000000D+000.111382D+010.000000D+00 
 *---------------------------------------------------------------------------------------------------------------------------------*
 *     O      0.00000  0.00000 -3.55725                                                                                            *
+                                              243   S           1.00                                                               
+                                                                      0.548467D+040.831724D+000.000000D+000.000000D+000.000000D+00 
 *                                                                     0.825235D+030.153082D+010.000000D+000.000000D+000.000000D+00*
 *                                                                     0.188047D+030.247715D+010.000000D+000.000000D+000.000000D+00*
 *                                                                     0.529645D+020.325628D+010.000000D+000.000000D+000.000000D+00*
 *                                                                     0.168976D+020.279289D+010.000000D+000.000000D+000.000000D+00*
 *                                                                     0.579964D+010.954938D+000.000000D+000.000000D+000.000000D+00*
 *                                         244-247   SP          1.00                                                              *
+                                                                      0.155396D+02-.617934D+000.311694D+010.000000D+000.000000D+00 
 *                                                                     0.359993D+01-.275721D+000.240144D+010.000000D+000.000000D+00*
 *                                                                     0.101376D+010.814208D+000.105436D+010.000000D+000.000000D+00*
 *                                         248-251   SP          1.00                                                              *
+                                                                      0.270006D+000.266956D+000.277432D+000.000000D+000.000000D+00 
 *                                         252-256   D           1.00                                                              *
+                                                                      0.800000D+000.000000D+000.000000D+000.111382D+010.000000D+00 
 *---------------------------------------------------------------------------------------------------------------------------------*
 *     O      0.00000  5.53241 -3.58763                                                                                            *
+                                              257   S           1.00                                                               
+                                                                      0.548467D+040.831724D+000.000000D+000.000000D+000.000000D+00 
 *                                                                     0.825235D+030.153082D+010.000000D+000.000000D+000.000000D+00*
 *                                                                     0.188047D+030.247715D+010.000000D+000.000000D+000.000000D+00*
 *                                                                     0.529645D+020.325628D+010.000000D+000.000000D+000.000000D+00*
 *                                                                     0.168976D+020.279289D+010.000000D+000.000000D+000.000000D+00*
 *                                                                     0.579964D+010.954938D+000.000000D+000.000000D+000.000000D+00*
 *                                         258-261   SP          1.00                                                              *
+                                                                      0.155396D+02-.617934D+000.311694D+010.000000D+000.000000D+00 
 *                                                                     0.359993D+01-.275721D+000.240144D+010.000000D+000.000000D+00*
 *                                                                     0.101376D+010.814208D+000.105436D+010.000000D+000.000000D+00*
 *                                         262-265   SP          1.00                                                              *
+                                                                      0.270006D+000.266956D+000.277432D+000.000000D+000.000000D+00 
 *                                         266-270   D           1.00                                                              *
+                                                                      0.800000D+000.000000D+000.000000D+000.111382D+010.000000D+00 
 *---------------------------------------------------------------------------------------------------------------------------------*
 *     O      0.00000 -5.53241 -3.58763                                                                                            *
+                                              271   S           1.00                                                               
+                                                                      0.548467D+040.831724D+000.000000D+000.000000D+000.000000D+00 
 *                                                                     0.825235D+030.153082D+010.000000D+000.000000D+000.000000D+00*
 *                                                                     0.188047D+030.247715D+010.000000D+000.000000D+000.000000D+00*
 *                                                                     0.529645D+020.325628D+010.000000D+000.000000D+000.000000D+00*
 *                                                                     0.168976D+020.279289D+010.000000D+000.000000D+000.000000D+00*
 *                                                                     0.579964D+010.954938D+000.000000D+000.000000D+000.000000D+00*
 *                                         272-275   SP          1.00                                                              *
+                                                                      0.155396D+02-.617934D+000.311694D+010.000000D+000.000000D+00 
 *                                                                     0.359993D+01-.275721D+000.240144D+010.000000D+000.000000D+00*
 *                                                                     0.101376D+010.814208D+000.105436D+010.000000D+000.000000D+00*
 *                                         276-279   SP          1.00                                                              *
+                                                                      0.270006D+000.266956D+000.277432D+000.000000D+000.000000D+00 
 *                                         280-284   D           1.00                                                              *
+                                                                      0.800000D+000.000000D+000.000000D+000.111382D+010.000000D+00 
 ***********************************************************************************************************************************
 There are    96 symmetry adapted basis functions of A1  symmetry.
 There are    48 symmetry adapted basis functions of A2  symmetry.
 There are    67 symmetry adapted basis functions of B1  symmetry.
 There are    73 symmetry adapted basis functions of B2  symmetry.
 Integral buffers will be    131072 words long.
 Raffenetti 2 integral format.
 Two-electron integral symmetry is turned on.
   284 basis functions,   524 primitive gaussians,   316 cartesian basis functions
    56 alpha electrons       56 beta electrons
       nuclear repulsion energy      1053.3374219067 Hartrees.
 IExCor=  408 DFT=T Ex+Corr=B3PW91 ExCW=0 ScaHFX=  0.200000
 ScaDFX=  0.800000  0.720000  1.000000  0.810000 ScalE2=  1.000000  1.000000
 IRadAn=      5 IRanWt=     -1 IRanGd=            0 ICorTp=0
 NAtoms=   12 NActive=   12 NUniq=    6 SFac= 4.00D+00 NAtFMM=   60 NAOKFM=F Big=F
 Leave Link  301 at Wed Oct 26 11:58:26 2016, MaxMem= 3370123264 cpu:       0.6
 (Enter /opt/qcapps/g09/l302.exe)
 NPDir=0 NMtPBC=     1 NCelOv=     1 NCel=       1 NClECP=     1 NCelD=      1
         NCelK=      1 NCelE2=     1 NClLst=     1 CellRange=     0.0.
 One-electron integrals computed using PRISM.
 One-electron integral symmetry used in STVInt
   4 Symmetry operations used in ECPInt.
 ECPInt:  NShTT=    4278 NPrTT=   15764 LenC2=    4138 LenP2D=   11378.
 LDataN:  DoStor=T MaxTD1= 6 Len=  172
 NBasis=   284 RedAO= T  NBF=    96    48    67    73
 NBsUse=   284 1.00D-06 NBFU=    96    48    67    73
 Precomputing XC quadrature grid using
 IXCGrd= 2 IRadAn=           5 IRanWt=          -1 IRanGd=           0 AccXCQ= 0.00D+00.
 NRdTot=    1032 NPtTot=      313568 NUsed=      320961 NTot=      320993
 NSgBfM=   315   315   315   315   315 NAtAll=    12    12.
 Leave Link  302 at Wed Oct 26 11:58:27 2016, MaxMem= 3370123264 cpu:       4.6
 (Enter /opt/qcapps/g09/l303.exe)
 DipDrv:  MaxL=1.
 Leave Link  303 at Wed Oct 26 11:58:27 2016, MaxMem= 3370123264 cpu:       0.5
 (Enter /opt/qcapps/g09/l401.exe)
 Harris functional with IExCor=  408 diagonalized for initial guess.
 ExpMin= 1.00D-02 ExpMax= 5.48D+03 ExpMxC= 8.25D+02 IAcc=3 IRadAn=         5 AccDes= 0.00D+00
 HarFok:  IExCor=  408 AccDes= 0.00D+00 IRadAn=         5 IDoV= 1
 ScaDFX=  1.000000  1.000000  1.000000  1.000000
 FoFCou: FMM=F IPFlag=           0 FMFlag=      100000 FMFlg1=           0
         NFxFlg=           0 DoJE=T BraDBF=F KetDBF=T FulRan=T
         Omega=  0.000000  0.000000  1.000000  0.000000  0.000000 ICntrl=     500 IOpCl=  0
         NMat0=    1 NMatS0=    1 NMatT0=    0 NMatD0=    1 NMtDS0=    0 NMtDT0=    0
         I1Cent=           4 NGrid=           0.
 Petite list used in FoFCou.
 Harris En= -836.513873388809    
 Initial guess orbital symmetries:
       Occupied  (A1) (A1) (B2) (B1) (A2) (A1) (B2) (A1) (A1) (B1)
                 (A1) (B2) (A1) (B2) (A2) (B2) (A1) (B1) (A1) (A1)
                 (B2) (B1) (A2) (B1) (A1) (A1) (B1) (B2) (A1) (A2)
                 (B2) (A1) (A1) (B2) (B1) (B1) (A1) (B2) (A1) (A2)
                 (B1) (B2) (A1) (A2) (B2) (A1) (B1) (B1) (A2) (B2)
                 (B2) (A2) (B1) (A1) (B2) (A1)
       Virtual   (A1) (A1) (A2) (B1) (B1) (B2) (A2) (A1) (B2) (B1)
                 (A1) (B2) (A1) (B1) (A2) (B2) (B1) (A2) (A1) (A1)
                 (B2) (A1) (B1) (B2) (B1) (A1) (A2) (A1) (A1) (B2)
                 (A1) (B1) (B2) (A1) (B1) (A2) (B2) (A1) (A1) (B2)
                 (B1) (B1) (A1) (B2) (B1) (A1) (A2) (A1) (B2) (A1)
                 (B2) (B1) (A2) (B1) (A2) (A1) (B1) (A2) (B2) (B2)
                 (A1) (B1) (B2) (A1) (A1) (B1) (A2) (A1) (B2) (A1)
                 (B2) (B1) (A2) (B1) (A1) (A1) (B2) (B2) (B1) (A1)
                 (A2) (B2) (B1) (A1) (B2) (A2) (A1) (B1) (B2) (A1)
                 (A2) (A1) (B1) (B1) (B2) (A2) (A1) (B1) (A1) (A2)
                 (B1) (B2) (A2) (B2) (A1) (B2) (B1) (A1) (B1) (A2)
                 (B2) (B2) (B1) (A1) (A1) (A2) (B2) (A1) (A2) (B1)
                 (B1) (A2) (A1) (A1) (B2) (B2) (B2) (A1) (B1) (A2)
                 (A1) (B2) (B1) (A2) (B2) (A1) (A2) (A1) (B1) (B2)
                 (A1) (B1) (A2) (B1) (B2) (A1) (B1) (A1) (A1) (B2)
                 (B1) (A2) (A1) (A1) (A2) (B2) (B1) (A1) (B2) (B2)
                 (A2) (A1) (B1) (A1) (B2) (A1) (B2) (B1) (A1) (B1)
                 (A2) (A1) (A2) (B2) (B1) (B1) (B2) (A1) (A1) (B1)
                 (A1) (A2) (B2) (B1) (A1) (A2) (A2) (B2) (A1) (B1)
                 (A1) (B2) (B2) (A2) (B2) (B1) (A2) (B1) (A1) (A1)
                 (A2) (A1) (B2) (B1) (B2) (A2) (A1) (B2) (A1) (A1)
                 (B1) (B2) (B1) (A2) (B1) (A1) (A1) (B2) (A1) (B1)
                 (B2) (A2) (A1) (B2) (A1) (B2) (A1) (B1)
 The electronic state of the initial guess is 1-A1.
 Leave Link  401 at Wed Oct 26 11:58:28 2016, MaxMem= 3370123264 cpu:       8.0
 (Enter /opt/qcapps/g09/l502.exe)
 Closed shell SCF:
 Requested convergence on RMS density matrix=1.00D-07 within 250 cycles.
 Requested convergence on MAX density matrix=1.00D-05.
 Requested convergence on             energy=1.00D-05.
 No special actions if energy rises.
 Using DIIS extrapolation, IDIIS=  1040.
 Integral symmetry usage will be decided dynamically.
       320840 words used for storage of precomputed grid.
 Keep R1 ints in memory in canonical form, NReq=1270947335.
 IEnd=      691232 IEndB=      691232 NGot=  3370123264 MDV=  2115266436
 LenX=  2115266436 LenY=  2115166139
 Symmetry not used in FoFDir.
 MinBra= 0 MaxBra= 3 Meth= 1.
 IRaf=       0 NMat=   1 IRICut=       1 DoRegI=T DoRafI=F ISym2E= 0 JSym2E=0.

 Cycle   1  Pass 1  IDiag  1:
 E= -833.602555365893    
 DIIS: error= 5.72D-02 at cycle   1 NSaved=   1.
 NSaved= 1 IEnMin= 1 EnMin= -833.602555365893     IErMin= 1 ErrMin= 5.72D-02
 ErrMax= 5.72D-02 EMaxC= 1.00D-01 BMatC= 2.69D+00 BMatP= 2.69D+00
 IDIUse=3 WtCom= 4.28D-01 WtEn= 5.72D-01
 Coeff-Com:  0.100D+01
 Coeff-En:   0.100D+01
 Coeff:      0.100D+01
 Gap=    -0.112 Goal=   None    Shift=    0.000
 GapD=   -0.112 DampG=0.250 DampE=0.250 DampFc=0.1250 IDamp=-1.
 Damping current iteration by 1.25D-01
 RMSDP=2.43D-02 MaxDP=1.31D+00              OVMax= 9.11D-01

 Cycle   2  Pass 1  IDiag  1:
 E= -834.061599112747     Delta-E=       -0.459043746855 Rises=F Damp=T
 DIIS: error= 2.59D-02 at cycle   2 NSaved=   2.
 NSaved= 2 IEnMin= 2 EnMin= -834.061599112747     IErMin= 2 ErrMin= 2.59D-02
 ErrMax= 2.59D-02 EMaxC= 1.00D-01 BMatC= 4.13D-01 BMatP= 2.69D+00
 IDIUse=3 WtCom= 7.41D-01 WtEn= 2.59D-01
 Coeff-Com: -0.382D+00 0.138D+01
 Coeff-En:   0.295D+00 0.705D+00
 Coeff:     -0.207D+00 0.121D+01
 Gap=     0.019 Goal=   None    Shift=    0.000
 RMSDP=5.40D-03 MaxDP=1.90D-01 DE=-4.59D-01 OVMax= 9.94D-01

 Cycle   3  Pass 1  IDiag  1:
 E= -834.734304484774     Delta-E=       -0.672705372026 Rises=F Damp=F
 DIIS: error= 6.31D-02 at cycle   3 NSaved=   3.
 NSaved= 3 IEnMin= 3 EnMin= -834.734304484774     IErMin= 2 ErrMin= 2.59D-02
 ErrMax= 6.31D-02 EMaxC= 1.00D-01 BMatC= 9.78D-01 BMatP= 4.13D-01
 IDIUse=2 WtCom= 0.00D+00 WtEn= 1.00D+00
 EnCoef did     4 forward-backward iterations
 Coeff-En:   0.116D+00 0.134D+00 0.751D+00
 Coeff:      0.116D+00 0.134D+00 0.751D+00
 Gap=    -0.225 Goal=   None    Shift=    0.000
 RMSDP=1.42D-02 MaxDP=8.04D-01 DE=-6.73D-01 OVMax= 9.46D-01

 Cycle   4  Pass 1  IDiag  1:
 E= -785.361834818803     Delta-E=       49.372469665971 Rises=F Damp=F
 DIIS: error= 2.18D-01 at cycle   4 NSaved=   4.
 NSaved= 4 IEnMin= 3 EnMin= -834.734304484774     IErMin= 2 ErrMin= 2.59D-02
 ErrMax= 2.18D-01 EMaxC= 1.00D-01 BMatC= 3.80D+01 BMatP= 4.13D-01
 IDIUse=2 WtCom= 0.00D+00 WtEn= 1.00D+00
 EnCoef did     3 forward-backward iterations
 Coeff-En:   0.184D+00 0.000D+00 0.762D+00 0.548D-01
 Coeff:      0.184D+00 0.000D+00 0.762D+00 0.548D-01
 Gap=    -0.020 Goal=   None    Shift=    0.000
 RMSDP=1.22D-02 MaxDP=6.48D-01 DE= 4.94D+01 OVMax= 9.95D-01

 Cycle   5  Pass 1  IDiag  1:
 E= -830.806829936917     Delta-E=      -45.444995118114 Rises=F Damp=F
 DIIS: error= 1.30D-01 at cycle   5 NSaved=   5.
 NSaved= 5 IEnMin= 3 EnMin= -834.734304484774     IErMin= 2 ErrMin= 2.59D-02
 ErrMax= 1.30D-01 EMaxC= 1.00D-01 BMatC= 6.72D+00 BMatP= 4.13D-01
 IDIUse=2 WtCom= 0.00D+00 WtEn= 1.00D+00
 EnCoef did     2 forward-backward iterations
 Coeff-En:   0.179D+00 0.000D+00 0.596D+00 0.000D+00 0.225D+00
 Coeff:      0.179D+00 0.000D+00 0.596D+00 0.000D+00 0.225D+00
 Gap=    -0.026 Goal=   None    Shift=    0.000
 RMSDP=5.53D-03 MaxDP=2.14D-01 DE=-4.54D+01 OVMax= 8.33D-01

 Cycle   6  Pass 1  IDiag  1:
 E= -835.407216478632     Delta-E=       -4.600386541715 Rises=F Damp=F
 DIIS: error= 2.39D-02 at cycle   6 NSaved=   6.
 NSaved= 6 IEnMin= 6 EnMin= -835.407216478632     IErMin= 6 ErrMin= 2.39D-02
 ErrMax= 2.39D-02 EMaxC= 1.00D-01 BMatC= 3.10D-01 BMatP= 4.13D-01
 IDIUse=3 WtCom= 7.61D-01 WtEn= 2.39D-01
 Coeff-Com: -0.250D+00 0.769D+00 0.293D+00-0.890D-02 0.165D-01 0.180D+00
 Coeff-En:   0.000D+00 0.000D+00 0.208D+00 0.000D+00 0.000D+00 0.792D+00
 Coeff:     -0.190D+00 0.586D+00 0.273D+00-0.677D-02 0.125D-01 0.326D+00
 Gap=     0.170 Goal=   None    Shift=    0.000
 RMSDP=2.61D-03 MaxDP=9.71D-02 DE=-4.60D+00 OVMax= 1.54D-01

 Cycle   7  Pass 1  IDiag  1:
 E= -835.347072691167     Delta-E=        0.060143787465 Rises=F Damp=F
 DIIS: error= 2.42D-02 at cycle   7 NSaved=   7.
 NSaved= 7 IEnMin= 6 EnMin= -835.407216478632     IErMin= 6 ErrMin= 2.39D-02
 ErrMax= 2.42D-02 EMaxC= 1.00D-01 BMatC= 3.73D-01 BMatP= 3.10D-01
 IDIUse=2 WtCom= 0.00D+00 WtEn= 1.00D+00
 Coeff-En:   0.000D+00 0.000D+00 0.000D+00 0.000D+00 0.000D+00 0.541D+00
 Coeff-En:   0.459D+00
 Coeff:      0.000D+00 0.000D+00 0.000D+00 0.000D+00 0.000D+00 0.541D+00
 Coeff:      0.459D+00
 Gap=     0.141 Goal=   None    Shift=    0.000
 RMSDP=2.23D-03 MaxDP=1.02D-01 DE= 6.01D-02 OVMax= 1.61D-01

 Cycle   8  Pass 1  IDiag  1:
 E= -835.372429057702     Delta-E=       -0.025356366536 Rises=F Damp=F
 DIIS: error= 4.35D-02 at cycle   8 NSaved=   8.
 NSaved= 8 IEnMin= 6 EnMin= -835.407216478632     IErMin= 6 ErrMin= 2.39D-02
 ErrMax= 4.35D-02 EMaxC= 1.00D-01 BMatC= 3.71D-01 BMatP= 3.10D-01
 IDIUse=2 WtCom= 0.00D+00 WtEn= 1.00D+00
 EnCoef did     3 forward-backward iterations
 Coeff-En:   0.000D+00 0.000D+00 0.000D+00 0.000D+00 0.000D+00 0.407D+00
 Coeff-En:   0.352D+00 0.241D+00
 Coeff:      0.000D+00 0.000D+00 0.000D+00 0.000D+00 0.000D+00 0.407D+00
 Coeff:      0.352D+00 0.241D+00
 Gap=     0.135 Goal=   None    Shift=    0.000
 RMSDP=1.37D-03 MaxDP=9.47D-02 DE=-2.54D-02 OVMax= 1.19D-01

 Cycle   9  Pass 1  IDiag  1:
 E= -835.647717715678     Delta-E=       -0.275288657975 Rises=F Damp=F
 DIIS: error= 4.24D-03 at cycle   9 NSaved=   9.
 NSaved= 9 IEnMin= 9 EnMin= -835.647717715678     IErMin= 9 ErrMin= 4.24D-03
 ErrMax= 4.24D-03 EMaxC= 1.00D-01 BMatC= 7.60D-03 BMatP= 3.10D-01
 IDIUse=3 WtCom= 9.58D-01 WtEn= 4.24D-02
 Coeff-Com: -0.322D-02-0.184D-01-0.371D-01 0.144D-02-0.670D-02 0.172D+00
 Coeff-Com:  0.180D+00 0.137D+00 0.574D+00
 Coeff-En:   0.000D+00 0.000D+00 0.000D+00 0.000D+00 0.000D+00 0.000D+00
 Coeff-En:   0.000D+00 0.000D+00 0.100D+01
 Coeff:     -0.308D-02-0.176D-01-0.355D-01 0.138D-02-0.642D-02 0.165D+00
 Coeff:      0.173D+00 0.131D+00 0.592D+00
 Gap=     0.114 Goal=   None    Shift=    0.000
 RMSDP=3.51D-04 MaxDP=9.98D-03 DE=-2.75D-01 OVMax= 1.73D-02

 Cycle  10  Pass 1  IDiag  1:
 E= -835.652693720348     Delta-E=       -0.004976004671 Rises=F Damp=F
 DIIS: error= 1.73D-03 at cycle  10 NSaved=  10.
 NSaved=10 IEnMin=10 EnMin= -835.652693720348     IErMin=10 ErrMin= 1.73D-03
 ErrMax= 1.73D-03 EMaxC= 1.00D-01 BMatC= 1.78D-03 BMatP= 7.60D-03
 IDIUse=3 WtCom= 9.83D-01 WtEn= 1.73D-02
 Coeff-Com: -0.185D-02-0.268D-02-0.209D-01 0.632D-03-0.353D-02 0.571D-01
 Coeff-Com:  0.776D-01 0.506D-01 0.385D+00 0.458D+00
 Coeff-En:   0.000D+00 0.000D+00 0.000D+00 0.000D+00 0.000D+00 0.000D+00
 Coeff-En:   0.000D+00 0.000D+00 0.207D+00 0.793D+00
 Coeff:     -0.182D-02-0.264D-02-0.206D-01 0.621D-03-0.347D-02 0.561D-01
 Coeff:      0.763D-01 0.497D-01 0.382D+00 0.464D+00
 Gap=     0.118 Goal=   None    Shift=    0.000
 RMSDP=1.28D-04 MaxDP=5.65D-03 DE=-4.98D-03 OVMax= 8.92D-03

 Cycle  11  Pass 1  IDiag  1:
 E= -835.653819797448     Delta-E=       -0.001126077099 Rises=F Damp=F
 DIIS: error= 1.55D-03 at cycle  11 NSaved=  11.
 NSaved=11 IEnMin=11 EnMin= -835.653819797448     IErMin=11 ErrMin= 1.55D-03
 ErrMax= 1.55D-03 EMaxC= 1.00D-01 BMatC= 3.73D-04 BMatP= 1.78D-03
 IDIUse=3 WtCom= 9.85D-01 WtEn= 1.55D-02
 Coeff-Com: -0.306D-02 0.775D-02-0.523D-02-0.525D-04-0.950D-04-0.278D-02
 Coeff-Com:  0.137D-01-0.168D-02 0.162D+00 0.392D+00 0.438D+00
[...]
     35  0.460493D-02  0.000000D+00  0.126459D-01  0.212731D-02  0.000000D+00
     36  0.228773D-02  0.000000D+00  0.881951D-02  0.300848D-02  0.000000D+00
               11            12            13            14            15 
     11  0.552434D+00
     12  0.159876D+00  0.384555D+00
     13  0.000000D+00  0.000000D+00  0.276525D+00
     14 -0.100665D-02  0.854796D-03  0.000000D+00  0.449332D-01
     15  0.403274D-02  0.353607D-02  0.000000D+00  0.000000D+00  0.153004D+00
     16  0.201365D-02 -0.351077D-01  0.210617D-01  0.800096D-02  0.482742D-02
     17 -0.273840D-01  0.117129D-01  0.389701D-01  0.520873D-02 -0.787539D-02
     18 -0.617671D-02 -0.311776D-01  0.384256D-01 -0.355991D-02 -0.529298D-02
     19  0.928756D-02 -0.719203D-02  0.210617D-01 -0.800096D-02  0.482742D-02
     20 -0.828980D-02  0.166187D-01 -0.389701D-01  0.520873D-02  0.787539D-02
     21  0.136209D-01 -0.189873D-01  0.384256D-01  0.355991D-02 -0.529298D-02
     22 -0.201365D-02  0.351077D-01  0.210617D-01 -0.800096D-02 -0.482742D-02
     23 -0.273840D-01  0.117129D-01 -0.389701D-01  0.520873D-02 -0.787539D-02
     24 -0.617671D-02 -0.311776D-01 -0.384256D-01 -0.355991D-02 -0.529298D-02
     25 -0.928756D-02  0.719203D-02  0.210617D-01  0.800096D-02 -0.482742D-02
     26 -0.828980D-02  0.166187D-01  0.389701D-01  0.520873D-02  0.787539D-02
     27  0.136209D-01 -0.189873D-01 -0.384256D-01  0.355991D-02 -0.529298D-02
     28  0.000000D+00  0.000000D+00  0.789766D-02  0.000000D+00  0.000000D+00
     29 -0.125876D+00  0.637913D-01  0.000000D+00  0.192325D-02  0.000000D+00
     30  0.852040D-01 -0.951465D-01  0.000000D+00  0.000000D+00 -0.119945D-02
     31  0.000000D+00  0.000000D+00  0.204489D-02  0.000000D+00  0.000000D+00
     32  0.126459D-01 -0.212731D-02  0.000000D+00  0.228214D-03  0.229523D-02
     33 -0.881951D-02  0.300848D-02  0.000000D+00  0.180610D-03 -0.122666D-02
     34  0.000000D+00  0.000000D+00  0.204489D-02  0.000000D+00  0.000000D+00
     35 -0.335298D+00 -0.220542D+00  0.000000D+00  0.228214D-03 -0.229523D-02
     36 -0.211289D+00 -0.199045D+00  0.000000D+00 -0.180610D-03 -0.122666D-02
               16            17            18            19            20 
     16  0.841569D-01
     17  0.584146D-02  0.240119D+00
     18  0.429136D-01  0.143975D+00  0.171740D+00
     19  0.973841D-02  0.922927D-02  0.128391D-01  0.841569D-01
     20 -0.922927D-02 -0.326549D-01 -0.215552D-01 -0.584146D-02  0.240119D+00
     21  0.128391D-01  0.215552D-01  0.435593D-01  0.429136D-01 -0.143975D+00
     22 -0.106156D-01 -0.841006D-02 -0.988128D-02  0.901281D-03 -0.208174D-02
     23  0.841006D-02  0.143181D-01  0.129365D-01 -0.208174D-02  0.358037D-03
     24  0.988128D-02  0.129365D-01  0.176466D-01 -0.539963D-03 -0.138815D-02
     25  0.901281D-03  0.208174D-02  0.539963D-03 -0.106156D-01  0.841006D-02
     26  0.208174D-02  0.358037D-03 -0.138815D-02 -0.841006D-02  0.143181D-01
     27 -0.539963D-03  0.138815D-02  0.458439D-02  0.988128D-02 -0.129365D-01
     28  0.902716D-03  0.109420D-02 -0.411780D-02  0.902716D-03 -0.109420D-02
     29  0.185157D-01  0.251309D-01  0.313286D-01 -0.185157D-01  0.251309D-01
     30 -0.293128D-02  0.180282D-02 -0.184019D-02 -0.293128D-02 -0.180282D-02
     31  0.547868D-03  0.403723D-03  0.229513D-03  0.656746D-02  0.521241D-02
     32  0.163653D-02 -0.519771D-03  0.116048D-02  0.155938D-01 -0.507444D-03
     33 -0.788069D-03  0.846633D-03 -0.589705D-04 -0.533077D-02  0.400084D-02
     34  0.656746D-02 -0.521241D-02  0.108981D-02  0.547867D-03 -0.403723D-03
     35 -0.155938D-01 -0.507445D-03 -0.133883D-01 -0.163653D-02 -0.519771D-03
     36 -0.533077D-02 -0.400084D-02 -0.668128D-02 -0.788070D-03 -0.846634D-03
               21            22            23            24            25 
     21  0.171740D+00
     22  0.539963D-03  0.841569D-01
     23  0.138815D-02 -0.584146D-02  0.240119D+00
     24  0.458439D-02 -0.429136D-01  0.143975D+00  0.171740D+00
     25 -0.988128D-02  0.973841D-02 -0.922927D-02 -0.128391D-01  0.841569D-01
     26 -0.129365D-01  0.922927D-02 -0.326549D-01 -0.215552D-01  0.584146D-02
     27  0.176466D-01 -0.128391D-01  0.215552D-01  0.435593D-01 -0.429136D-01
     28 -0.411780D-02  0.902716D-03 -0.109420D-02  0.411780D-02  0.902716D-03
     29 -0.313286D-01 -0.185157D-01  0.251309D-01  0.313286D-01  0.185157D-01
     30 -0.184019D-02  0.293128D-02  0.180282D-02 -0.184019D-02  0.293128D-02
     31  0.108981D-02  0.547867D-03 -0.403723D-03 -0.229513D-03  0.656746D-02
     32  0.133883D-01 -0.163653D-02 -0.519771D-03  0.116048D-02 -0.155938D-01
     33 -0.668129D-02  0.788070D-03  0.846634D-03 -0.589704D-04  0.533077D-02
     34  0.229513D-03  0.656746D-02  0.521241D-02 -0.108981D-02  0.547868D-03
     35 -0.116048D-02  0.155938D-01 -0.507444D-03 -0.133883D-01  0.163653D-02
     36 -0.589704D-04  0.533077D-02 -0.400084D-02 -0.668129D-02  0.788069D-03
               26            27            28            29            30 
     26  0.240119D+00
     27 -0.143975D+00  0.171740D+00
     28  0.109420D-02  0.411780D-02  0.238031D-01
     29  0.251309D-01 -0.313286D-01  0.000000D+00  0.284556D+00
     30 -0.180282D-02 -0.184019D-02  0.000000D+00  0.000000D+00  0.152288D+00
     31 -0.521241D-02 -0.108981D-02  0.848666D-04  0.000000D+00  0.000000D+00
     32 -0.507445D-03  0.133883D-01  0.000000D+00 -0.279121D-01 -0.660424D-02
     33  0.400084D-02 -0.668128D-02  0.000000D+00  0.211775D-01  0.218042D-01
     34  0.403723D-03 -0.229513D-03  0.848666D-04  0.000000D+00  0.000000D+00
     35 -0.519771D-03 -0.116048D-02  0.000000D+00 -0.279121D-01  0.660424D-02
     36 -0.846633D-03 -0.589705D-04  0.000000D+00 -0.211775D-01  0.218042D-01
               31            32            33            34            35 
     31  0.123838D-01
     32  0.000000D+00  0.349797D+00
     33  0.000000D+00 -0.230623D+00  0.182520D+00
     34  0.697002D-03  0.000000D+00  0.000000D+00  0.123838D-01
     35  0.000000D+00 -0.474253D-02  0.337004D-02  0.000000D+00  0.349797D+00
     36  0.000000D+00 -0.337004D-02  0.184403D-02  0.000000D+00  0.230623D+00
               36 
     36  0.182520D+00
 Leave Link  716 at Wed Oct 26 12:07:31 2016, MaxMem= 3370123264 cpu:       1.4
 (Enter /opt/qcapps/g09/l103.exe)

 GradGradGradGradGradGradGradGradGradGradGradGradGradGradGradGradGradGrad
 Berny optimization.
 Search for a local minimum.
 Step number   1 out of a maximum of    2
 All quantities printed in internal units (Hartrees-Bohrs-Radians)
 Second derivative matrix not updated -- analytic derivatives used.
 ITU=  0
     Eigenvalues ---    0.01296   0.01432   0.01636   0.01674   0.01834
     Eigenvalues ---    0.02045   0.02965   0.03093   0.03979   0.04215
     Eigenvalues ---    0.04438   0.05039   0.07366   0.07568   0.08408
     Eigenvalues ---    0.13143   0.16183   0.19241   0.20675   0.22256
     Eigenvalues ---    0.40502   0.41443   0.46620   0.47728   0.68060
     Eigenvalues ---    0.68284   0.78468   0.80781   1.04786   1.11038
 Angle between quadratic step and forces=  55.31 degrees.
 ClnCor:  largest displacement from symmetrization is 3.42D-11 for atom    12.
 Linear search not attempted -- first point.
 ClnCor:  largest displacement from symmetrization is 2.17D-28 for atom     5.
 TrRot=  0.000000  0.000000 -0.000001  0.000000  0.000000  0.000000
 Variable       Old X    -DE/DX   Delta X   Delta X   Delta X     New X
                                 (Linear)    (Quad)   (Total)
    X1       -2.95713  -0.00004   0.00000  -0.00011  -0.00011  -2.95724
    Y1        0.00000   0.00000   0.00000   0.00000   0.00000   0.00000
    Z1        2.55382  -0.00002   0.00000   0.00015   0.00015   2.55398
    X2        2.95713   0.00004   0.00000   0.00011   0.00011   2.95724
    Y2        0.00000   0.00000   0.00000   0.00000   0.00000   0.00000
    Z2        2.55382  -0.00002   0.00000   0.00015   0.00015   2.55398
    X3        0.00000   0.00000   0.00000   0.00000   0.00000   0.00000
    Y3        3.01852  -0.00008   0.00000  -0.00071  -0.00071   3.01781
    Z3       -1.85495   0.00007   0.00000  -0.00017  -0.00017  -1.85512
    X4        0.00000   0.00000   0.00000   0.00000   0.00000   0.00000
    Y4       -3.01852   0.00008   0.00000   0.00071   0.00071  -3.01781
    Z4       -1.85495   0.00007   0.00000  -0.00017  -0.00017  -1.85512
    X5        0.00000   0.00000   0.00000   0.00000   0.00000   0.00000
    Y5        0.00000   0.00000   0.00000   0.00000   0.00000   0.00000
    Z5        4.32276  -0.00003   0.00000  -0.00004  -0.00004   4.32272
    X6        2.78871  -0.00006   0.00000  -0.00072  -0.00072   2.78798
    Y6       -2.59319   0.00001   0.00000   0.00022   0.00022  -2.59297
    Z6        0.64149  -0.00001   0.00000   0.00006   0.00006   0.64155
    X7        2.78871  -0.00006   0.00000  -0.00072  -0.00072   2.78798
    Y7        2.59319  -0.00001   0.00000  -0.00022  -0.00022   2.59297
    Z7        0.64149  -0.00001   0.00000   0.00006   0.00006   0.64155
    X8       -2.78871   0.00006   0.00000   0.00072   0.00072  -2.78798
    Y8       -2.59319   0.00001   0.00000   0.00022   0.00022  -2.59297
    Z8        0.64149  -0.00001   0.00000   0.00006   0.00006   0.64155
    X9       -2.78871   0.00006   0.00000   0.00072   0.00072  -2.78798
    Y9        2.59319  -0.00001   0.00000  -0.00022  -0.00022   2.59297
    Z9        0.64149  -0.00001   0.00000   0.00006   0.00006   0.64155
   X10        0.00000   0.00000   0.00000   0.00000   0.00000   0.00000
   Y10        0.00000   0.00000   0.00000   0.00000   0.00000   0.00000
   Z10       -3.55725  -0.00003   0.00000  -0.00144  -0.00144  -3.55869
   X11        0.00000   0.00000   0.00000   0.00000   0.00000   0.00000
   Y11        5.53241   0.00001   0.00000  -0.00010  -0.00010   5.53231
   Z11       -3.58763  -0.00001   0.00000   0.00064   0.00064  -3.58699
   X12        0.00000   0.00000   0.00000   0.00000   0.00000   0.00000
   Y12       -5.53241  -0.00001   0.00000   0.00010   0.00010  -5.53231
   Z12       -3.58763  -0.00001   0.00000   0.00064   0.00064  -3.58699
         Item               Value     Threshold  Converged?
 Maximum Force            0.000082     0.000450     YES
 RMS     Force            0.000035     0.000300     YES
 Maximum Displacement     0.001436     0.001800     YES
 RMS     Displacement     0.000420     0.001200     YES
 Predicted change in Energy=-1.510154D-07
 Optimization completed.
    -- Stationary point found.
 GradGradGradGradGradGradGradGradGradGradGradGradGradGradGradGradGradGrad

 Leave Link  103 at Wed Oct 26 12:07:32 2016, MaxMem= 3370123264 cpu:       1.4
 (Enter /opt/qcapps/g09/l9999.exe)

 Test job not archived.
 1\1\GINC-TITAN10\Freq\RB3PW91\GenECP\O8Ti4\OHNISHI\26-Oct-2016\0\\#P B
 3PW91/GenECP SCFCon=7 SCFCyc=250 GFInput GFOldPrint Pseudo=Read Freq I
 ntegral=(Grid=UltraFine) Pop=Regular IOp(1/33=0,2/11=1,3/27=8,6/7=3)\\
 Frequency\\0,1\Ti,-1.564845,0.,1.351425\Ti,1.564845,0.,1.351425\Ti,0.,
 1.597333,-0.981597\Ti,0.,-1.597333,-0.981597\O,0.,0.,2.287505\O,1.4757
 2,-1.372257,0.339461\O,1.47572,1.372257,0.339461\O,-1.47572,-1.372257,
 0.339461\O,-1.47572,1.372257,0.339461\O,0.,0.,-1.882417\O,0.,2.927626,
 -1.898493\O,0.,-2.927626,-1.898493\\Version=AM64L-G09RevC.01\State=1-A
 1\HF=-835.6541204\RMSD=4.280e-08\RMSF=3.509e-05\ZeroPoint=0.0313702\Th
 ermal=0.0446262\Dipole=0.,0.,4.9177145\DipoleDeriv=1.9140209,0.,0.2000
 984,0.,2.3117291,0.,0.526218,0.,1.7518709,1.9140209,0.,-0.2000984,0.,2
 .3117291,0.,-0.526218,0.,1.7518709,1.4291916,0.,0.,0.,2.888643,-0.4928
 567,0.,-0.6866381,1.9681845,1.4291916,0.,0.,0.,2.888643,0.4928567,0.,0
 .6866381,1.9681845,-1.8009013,0.,0.,0.,-0.4109713,0.,0.,0.,-1.2256369,
 -0.7886353,-0.1348756,-0.371487,0.161036,-1.1582983,-0.341348,-0.08505
 09,-0.6250527,-0.9726735,-0.7886353,0.1348756,-0.371487,-0.161036,-1.1
 582983,0.341348,-0.0850509,0.6250527,-0.9726735,-0.7886353,0.1348756,0
 .371487,-0.161036,-1.1582983,-0.341348,0.0850509,-0.6250527,-0.9726735
 ,-0.7886353,-0.1348756,0.371487,0.161036,-1.1582983,0.341348,0.0850509
 ,0.6250527,-0.9726735,-0.619562,0.,0.,0.,-2.1316102,0.,0.,0.,-0.656102
 2,-0.5557103,0.,0.,0.,-1.6124848,0.5454589,0.,0.7445608,-0.8338388,-0.
 5557103,0.,0.,0.,-1.6124848,-0.5454589,0.,-0.7445608,-0.8338388\Polar=
 95.5704278,0.,155.3041031,0.,0.,118.5257777\PG=C02V [C2(O1O1),SGV(O2Ti
 2),SGV'(Ti2),X(O4)]\NImag=0\\0.25391019,0.,0.45076547,0.01158474,0.,0.
 38094301,-0.04815047,0.,-0.02911349,0.25391019,0.,0.02335239,0.,0.,0.4
 5076547,0.02911349,0.,0.04900357,-0.01158474,0.,0.38094301,0.01827155,
 -0.03694723,0.02752343,0.01827155,0.03694723,-0.02752343,0.16605191,-0
 .00873094,0.01144244,0.01382074,0.00873094,0.01144244,0.01382074,0.,0.
 55243403,0.00802479,0.03738349,-0.01069560,-0.00802479,0.03738348,-0.0
 1069560,0.,-0.15987608,0.38455495,0.01827155,0.03694723,0.02752343,0.0
 1827155,-0.03694723,-0.02752343,0.01518536,0.,0.,0.16605191,0.00873094
 ,0.01144244,-0.01382074,-0.00873094,0.01144244,-0.01382074,0.,-0.05443
 638,-0.01625087,0.,0.55243403,0.00802479,-0.03738348,-0.01069560,-0.00
 802479,-0.03738349,-0.01069560,0.,0.01625087,0.02481262,0.,0.15987608,
 0.38455495,-0.14901597,0.,-0.02636405,-0.14901597,0.,0.02636405,-0.037
 36365,0.,0.,-0.03736365,0.,0.,0.27652497,0.,-0.03306724,0.,0.,-0.03306
 724,0.,0.,-0.00100665,-0.00085480,0.,-0.00100665,0.00085480,0.,0.04493
 319,-0.08832338,0.,-0.06762558,0.08832338,0.,-0.06762558,0.,-0.0040327
 4,0.00353607,0.,0.00403274,0.00353607,0.,0.,0.15300370,-0.00626021,-0.
 00812861,-0.01043211,-0.03698475,-0.00426085,-0.00813953,-0.00708160,-
 0.00928756,-0.00719203,-0.06293425,0.00201365,-0.03510770,0.02106171,0
 .00800096,0.00482742,0.08415694,-0.01465148,-0.01187653,-0.01514652,-0
 .04175870,-0.20390278,-0.15057593,-0.01006262,-0.00828980,-0.01661872,
 0.02247476,-0.02738399,0.01171292,0.03897012,0.00520873,-0.00787539,0.
 00584146,0.24011944,-0.01543025,-0.01053083,-0.02019840,-0.03314841,-0
 .11918072,-0.15329343,-0.00972140,-0.01362094,-0.01898726,-0.02373848,
 -0.00617671,-0.03117761,0.03842560,-0.00355991,-0.00529298,0.04291362,
 0.14397514,0.17173985,-0.00626021,0.00812861,-0.01043211,-0.03698475,0
 .00426085,-0.00813953,-0.06293425,-0.00201365,-0.03510770,-0.00708160,
 0.00928756,-0.00719203,0.02106171,-0.00800096,0.00482742,0.00973841,0.
 00922927,0.01283912,0.08415693,0.01465148,-0.01187653,0.01514652,0.041
 75870,-0.20390278,0.15057593,-0.02247476,-0.02738399,-0.01171292,0.010
 06262,-0.00828980,0.01661872,-0.03897012,0.00520873,0.00787539,-0.0092
 2927,-0.03265489,-0.02155519,-0.00584146,0.24011944,-0.01543025,0.0105
 3083,-0.02019840,-0.03314841,0.11918072,-0.15329343,-0.02373848,0.0061
 7671,-0.03117761,-0.00972140,0.01362094,-0.01898726,0.03842560,0.00355
 991,-0.00529298,0.01283912,0.02155519,0.04355929,0.04291362,-0.1439751
 4,0.17173985,-0.03698475,0.00426085,0.00813953,-0.00626021,0.00812861,
 0.01043211,-0.00708160,0.00928756,0.00719203,-0.06293425,-0.00201365,0
 .03510770,0.02106171,-0.00800096,-0.00482742,-0.01061559,-0.00841006,-
 0.00988128,0.00090128,-0.00208174,0.00053996,0.08415693,0.04175870,-0.
 20390278,-0.15057593,0.01465148,-0.01187653,-0.01514652,0.01006262,-0.
 00828980,-0.01661872,-0.02247476,-0.02738399,0.01171292,-0.03897012,0.
 00520873,-0.00787539,0.00841006,0.01431815,0.01293655,-0.00208174,0.00
 035804,0.00138815,-0.00584146,0.24011944,0.03314841,-0.11918072,-0.153
 29343,0.01543025,-0.01053083,-0.02019840,0.00972140,-0.01362094,-0.018
 98726,0.02373848,-0.00617671,-0.03117761,-0.03842560,-0.00355991,-0.00
 529298,0.00988128,0.01293655,0.01764661,-0.00053996,-0.00138815,0.0045
 8439,-0.04291362,0.14397514,0.17173985,-0.03698475,-0.00426085,0.00813
 953,-0.00626021,-0.00812861,0.01043211,-0.06293425,0.00201365,0.035107
 70,-0.00708160,-0.00928756,0.00719203,0.02106171,0.00800096,-0.0048274
 2,0.00090128,0.00208174,0.00053996,-0.01061559,0.00841006,-0.00988128,
 0.00973841,-0.00922927,-0.01283912,0.08415693,-0.04175870,-0.20390278,
 0.15057593,-0.01465148,-0.01187653,0.01514652,0.02247476,-0.02738399,-
 0.01171292,-0.01006262,-0.00828980,0.01661872,0.03897012,0.00520873,0.
 00787539,0.00208174,0.00035804,-0.00138815,-0.00841006,0.01431815,-0.0
 1293655,0.00922927,-0.03265489,-0.02155519,0.00584146,0.24011944,0.033
 14841,0.11918072,-0.15329343,0.01543025,0.01053083,-0.02019840,0.02373
 848,0.00617671,-0.03117761,0.00972140,0.01362094,-0.01898726,-0.038425
 60,0.00355991,-0.00529298,-0.00053996,0.00138815,0.00458439,0.00988128
 ,-0.01293655,0.01764661,-0.01283912,0.02155519,0.04355929,-0.04291362,
 -0.14397514,0.17173985,-0.00401084,0.,-0.00464830,-0.00401084,0.,0.004
 64830,-0.01372985,0.,0.,-0.01372985,0.,0.,0.00789766,0.,0.,0.00090272,
 0.00109420,-0.00411780,0.00090272,-0.00109420,-0.00411780,0.00090272,-
 0.00109420,0.00411780,0.00090272,0.00109420,0.00411780,0.02380313,0.,-
 0.03971321,0.,0.,-0.03971321,0.,0.,-0.12587617,-0.06379126,0.,-0.12587
 617,0.06379126,0.,0.00192325,0.,0.01851567,0.02513086,0.03132860,-0.01
 851567,0.02513086,-0.03132860,-0.01851567,0.02513086,0.03132860,0.0185
 1567,0.02513086,-0.03132860,0.,0.28455625,-0.00216335,0.,0.00147838,0.
 00216335,0.,0.00147838,0.,-0.08520399,-0.09514649,0.,0.08520399,-0.095
 14649,0.,0.,-0.00119945,-0.00293128,0.00180282,-0.00184019,-0.00293128
 ,-0.00180282,-0.00184019,0.00293128,0.00180282,-0.00184019,0.00293128,
 -0.00180282,-0.00184019,0.,0.,0.15228799,-0.00139305,0.00090802,-0.000
 96030,-0.00139305,-0.00090802,0.00096030,-0.02491749,0.,0.,-0.00173768
 ,0.,0.,0.00204489,0.,0.,0.00054787,0.00040372,0.00022951,0.00656746,0.
 00521241,0.00108981,0.00054787,-0.00040372,-0.00022951,0.00656746,-0.0
 0521241,-0.00108981,0.00008487,0.,0.,0.01238384,0.00107717,0.00366816,
 -0.00460493,-0.00107717,0.00366815,-0.00460493,0.,-0.33529798,0.220541
 99,0.,0.01264586,-0.00212731,0.,0.00022821,0.00229523,0.00163653,-0.00
 051977,0.00116048,0.01559377,-0.00050744,0.01338831,-0.00163653,-0.000
 51977,0.00116048,-0.01559377,-0.00050744,0.01338831,0.,-0.02791209,-0.
 00660424,0.,0.34979664,-0.00084870,-0.00313481,0.00228773,0.00084870,-
 0.00313481,0.00228773,0.,0.21128940,-0.19904469,0.,-0.00881951,0.00300
 848,0.,0.00018061,-0.00122666,-0.00078807,0.00084663,-0.00005897,-0.00
 533077,0.00400084,-0.00668129,0.00078807,0.00084663,-0.00005897,0.0053
 3077,0.00400084,-0.00668128,0.,0.02117746,0.02180423,0.,-0.23062332,0.
 18251966,-0.00139305,-0.00090802,-0.00096030,-0.00139305,0.00090802,0.
 00096030,-0.00173768,0.,0.,-0.02491749,0.,0.,0.00204489,0.,0.,0.006567
 46,-0.00521241,0.00108981,0.00054787,-0.00040372,0.00022951,0.00656746
 ,0.00521241,-0.00108981,0.00054787,0.00040372,-0.00022951,0.00008487,0
 .,0.,0.00069700,0.,0.,0.01238384,-0.00107717,0.00366815,0.00460493,0.0
 0107717,0.00366816,0.00460493,0.,0.01264586,0.00212731,0.,-0.33529798,
 -0.22054199,0.,0.00022821,-0.00229523,-0.01559377,-0.00050744,-0.01338
 831,-0.00163653,-0.00051977,-0.00116048,0.01559377,-0.00050744,-0.0133
 8831,0.00163653,-0.00051977,-0.00116048,0.,-0.02791209,0.00660424,0.,-
 0.00474253,0.00337004,0.,0.34979664,-0.00084870,0.00313481,0.00228773,
 0.00084870,0.00313481,0.00228773,0.,0.00881951,0.00300848,0.,-0.211289
 40,-0.19904469,0.,-0.00018061,-0.00122666,-0.00533077,-0.00400084,-0.0
 0668128,-0.00078807,-0.00084663,-0.00005897,0.00533077,-0.00400084,-0.
 00668129,0.00078807,-0.00084663,-0.00005897,0.,-0.02117746,0.02180423,
 0.,-0.00337004,0.00184403,0.,0.23062332,0.18251966\\0.00004211,0.,0.00
 001787,-0.00004211,0.,0.00001787,0.,0.00008152,-0.00007116,0.,-0.00008
 152,-0.00007116,0.,0.,0.00002537,0.00005892,-0.00001365,0.00001056,0.0
 0005892,0.00001365,0.00001056,-0.00005892,-0.00001365,0.00001056,-0.00
 005892,0.00001365,0.00001056,0.,0.,0.00002503,0.,-0.00001172,0.0000069
 5,0.,0.00001172,0.00000695\\\@


 CURIOUSER AND CURIOUSER

                  -- ALICE, IN WONDERLAND
 Job cpu time:  0 days  0 hours  8 minutes 21.9 seconds.
 File lengths (MBytes):  RWF=     85 Int=      0 D2E=      0 Chk=      6 Scr=      1
 Normal termination of Gaussian 09 at Wed Oct 26 12:07:32 2016.
real 545.97
user 484.13
sys 18.00
