 Running on titan13
 Entering Gaussian System, Link 0=g09
 Initial command:
 /opt/qcapps/g09/l1.exe /work/ohnishi/1477470913/Gau-25255.inp -scrdir=/work/ohnishi/1477470913/
 Entering Link 1 = /opt/qcapps/g09/l1.exe PID=     25256.
  
 Copyright (c) 1988,1990,1992,1993,1995,1998,2003,2009,2011,
            Gaussian, Inc.  All Rights Reserved.
  
 This is part of the Gaussian(R) 09 program.  It is based on
 the Gaussian(R) 03 system (copyright 2003, Gaussian, Inc.),
 the Gaussian(R) 98 system (copyright 1998, Gaussian, Inc.),
 the Gaussian(R) 94 system (copyright 1995, Gaussian, Inc.),
 the Gaussian 92(TM) system (copyright 1992, Gaussian, Inc.),
 the Gaussian 90(TM) system (copyright 1990, Gaussian, Inc.),
 the Gaussian 88(TM) system (copyright 1988, Gaussian, Inc.),
 the Gaussian 86(TM) system (copyright 1986, Carnegie Mellon
 University), and the Gaussian 82(TM) system (copyright 1983,
 Carnegie Mellon University). Gaussian is a federally registered
 trademark of Gaussian, Inc.
  
 This software contains proprietary and confidential information,
 including trade secrets, belonging to Gaussian, Inc.
  
 This software is provided under written license and may be
 used, copied, transmitted, or stored only in accord with that
 written license.
  
 The following legend is applicable only to US Government
 contracts under FAR:
  
                    RESTRICTED RIGHTS LEGEND
  
 Use, reproduction and disclosure by the US Government is
 subject to restrictions as set forth in subparagraphs (a)
 and (c) of the Commercial Computer Software - Restricted
 Rights clause in FAR 52.227-19.
  
 Gaussian, Inc.
 340 Quinnipiac St., Bldg. 40, Wallingford CT 06492
  
  
 ---------------------------------------------------------------
 Warning -- This program may not be used in any manner that
 competes with the business of Gaussian, Inc. or will provide
 assistance to any competitor of Gaussian, Inc.  The licensee
 of this program is prohibited from giving any competitor of
 Gaussian, Inc. access to this program.  By using this program,
 the user acknowledges that Gaussian, Inc. is engaged in the
 business of creating and licensing software in the field of
 computational chemistry and represents and warrants to the
 licensee that it is not a competitor of Gaussian, Inc. and that
 it will not use this program in any manner prohibited above.
 ---------------------------------------------------------------
  

 Cite this work as:
 Gaussian 09, Revision C.01,
 M. J. Frisch, G. W. Trucks, H. B. Schlegel, G. E. Scuseria, 
 M. A. Robb, J. R. Cheeseman, G. Scalmani, V. Barone, B. Mennucci, 
 G. A. Petersson, H. Nakatsuji, M. Caricato, X. Li, H. P. Hratchian, 
 A. F. Izmaylov, J. Bloino, G. Zheng, J. L. Sonnenberg, M. Hada, 
 M. Ehara, K. Toyota, R. Fukuda, J. Hasegawa, M. Ishida, T. Nakajima, 
 Y. Honda, O. Kitao, H. Nakai, T. Vreven, J. A. Montgomery, Jr., 
 J. E. Peralta, F. Ogliaro, M. Bearpark, J. J. Heyd, E. Brothers, 
 K. N. Kudin, V. N. Staroverov, T. Keith, R. Kobayashi, J. Normand, 
 K. Raghavachari, A. Rendell, J. C. Burant, S. S. Iyengar, J. Tomasi, 
 M. Cossi, N. Rega, J. M. Millam, M. Klene, J. E. Knox, J. B. Cross, 
 V. Bakken, C. Adamo, J. Jaramillo, R. Gomperts, R. E. Stratmann, 
 O. Yazyev, A. J. Austin, R. Cammi, C. Pomelli, J. W. Ochterski, 
 R. L. Martin, K. Morokuma, V. G. Zakrzewski, G. A. Voth, 
 P. Salvador, J. J. Dannenberg, S. Dapprich, A. D. Daniels, 
 O. Farkas, J. B. Foresman, J. V. Ortiz, J. Cioslowski, 
 and D. J. Fox, Gaussian, Inc., Wallingford CT, 2010.
 
 ******************************************
 Gaussian 09:  AM64L-G09RevC.01 23-Sep-2011
                26-Oct-2016 
 ******************************************
 %NprocShared=8
 Will use up to    8 processors via shared memory.
 %Mem=51488MB
 ----------------------------------------------------------------------
 #T B3PW91/GenECP SCFCon=7 SCFCyc=250 GFInput GFOldPrint Opt=(MaxCyc=60
 ,CalcFC) NoSym Integral=(Grid=UltraFine) Pop=Regular Pseudo=Read IOp(1
 /33=0,2/11=1,3/27=8,6/7=3)
 ----------------------------------------------------------------------
 ---------
 TiO2 1-5b
 ---------
 Charge =  0 Multiplicity = 1
 Symbolic Z-Matrix:
 Ti                    0.        0.        0. 
 O                     0.        1.98      0. 
 H                    -0.90494   2.30045   0. 
 O                    -1.98      0.        0. 
 H                    -2.30045  -0.90494   0. 
 O                     0.       -1.98      0. 
 H                     0.90494  -2.30045   0. 
 O                     1.98      0.        0. 
 H                     2.30045   0.90494   0. 
 

 GradGradGradGradGradGradGradGradGradGradGradGradGradGradGradGradGradGrad
 Initialization pass.
                           ----------------------------
                           !    Initial Parameters    !
                           ! (Angstroms and Degrees)  !
 --------------------------                            --------------------------
 ! Name  Definition              Value          Derivative Info.                !
 --------------------------------------------------------------------------------
 ! R1    R(1,2)                  1.98           calculate D2E/DX2 analytically  !
 ! R2    R(1,4)                  1.98           calculate D2E/DX2 analytically  !
 ! R3    R(1,6)                  1.98           calculate D2E/DX2 analytically  !
 ! R4    R(1,8)                  1.98           calculate D2E/DX2 analytically  !
 ! R5    R(2,3)                  0.96           calculate D2E/DX2 analytically  !
 ! R6    R(4,5)                  0.96           calculate D2E/DX2 analytically  !
 ! R7    R(6,7)                  0.96           calculate D2E/DX2 analytically  !
 ! R8    R(8,9)                  0.96           calculate D2E/DX2 analytically  !
 ! A1    A(2,1,4)               90.0            calculate D2E/DX2 analytically  !
 ! A2    A(2,1,8)               90.0            calculate D2E/DX2 analytically  !
 ! A3    A(4,1,6)               90.0            calculate D2E/DX2 analytically  !
 ! A4    A(6,1,8)               90.0            calculate D2E/DX2 analytically  !
 ! A5    A(1,2,3)              109.5            calculate D2E/DX2 analytically  !
 ! A6    A(1,4,5)              109.5            calculate D2E/DX2 analytically  !
 ! A7    A(1,6,7)              109.5            calculate D2E/DX2 analytically  !
 ! A8    A(1,8,9)              109.5            calculate D2E/DX2 analytically  !
 ! A9    L(2,1,6,8,-1)         180.0            calculate D2E/DX2 analytically  !
 ! A10   L(4,1,8,6,-1)         180.0            calculate D2E/DX2 analytically  !
 ! A11   L(2,1,6,8,-2)         180.0            calculate D2E/DX2 analytically  !
 ! A12   L(4,1,8,6,-2)         180.0            calculate D2E/DX2 analytically  !
 ! D1    D(4,1,2,3)              0.0            calculate D2E/DX2 analytically  !
 ! D2    D(8,1,2,3)            180.0            calculate D2E/DX2 analytically  !
 ! D3    D(3,2,6,7)            180.0            calculate D2E/DX2 analytically  !
 ! D4    D(2,1,4,5)            180.0            calculate D2E/DX2 analytically  !
 ! D5    D(6,1,4,5)              0.0            calculate D2E/DX2 analytically  !
 ! D6    D(5,4,8,9)            180.0            calculate D2E/DX2 analytically  !
 ! D7    D(4,1,6,7)            180.0            calculate D2E/DX2 analytically  !
 ! D8    D(8,1,6,7)              0.0            calculate D2E/DX2 analytically  !
 ! D9    D(2,1,8,9)              0.0            calculate D2E/DX2 analytically  !
 ! D10   D(6,1,8,9)            180.0            calculate D2E/DX2 analytically  !
 --------------------------------------------------------------------------------
 Number of steps in this run=     60 maximum allowed number of steps=    100.
 GradGradGradGradGradGradGradGradGradGradGradGradGradGradGradGradGradGrad

                          Input orientation:                          
 ---------------------------------------------------------------------
 Center     Atomic      Atomic             Coordinates (Angstroms)
 Number     Number       Type             X           Y           Z
 ---------------------------------------------------------------------
      1         22           0        0.000000    0.000000    0.000000
      2          8           0        0.000000    1.980000    0.000000
      3          1           0       -0.904936    2.300455    0.000000
      4          8           0       -1.980000    0.000000    0.000000
      5          1           0       -2.300455   -0.904936    0.000000
      6          8           0        0.000000   -1.980000    0.000000
      7          1           0        0.904936   -2.300455    0.000000
      8          8           0        1.980000    0.000000    0.000000
      9          1           0        2.300455    0.904936    0.000000
 ---------------------------------------------------------------------
                    Distance matrix (angstroms):
                    1          2          3          4          5
     1  Ti   0.000000
     2  O    1.980000   0.000000
     3  H    2.472044   0.960000   0.000000
     4  O    1.980000   2.800143   2.539263   0.000000
     5  H    2.472044   3.689844   3.495998   0.960000   0.000000
     6  O    1.980000   3.960000   4.375066   2.800143   2.539263
     7  H    2.472044   4.375066   4.944087   3.689844   3.495998
     8  O    1.980000   2.800143   3.689844   3.960000   4.375066
     9  H    2.472044   2.539263   3.495998   4.375066   4.944087
                    6          7          8          9
     6  O    0.000000
     7  H    0.960000   0.000000
     8  O    2.800143   2.539263   0.000000
     9  H    3.689844   3.495998   0.960000   0.000000
 Symmetry turned off by external request.
 Framework group  C4H[O(Ti),SGH(H4O4)]
 Deg. of freedom     3
 Rotational constants (GHZ):      3.6693308      3.6693308      1.8346654
 ======================================================================================================
                                       Pseudopotential Parameters
 ======================================================================================================
  Center     Atomic      Valence      Angular      Power
  Number     Number     Electrons     Momentum     of R      Exponent        Coefficient   SO-Coeffient
 ======================================================================================================
    1         22           12
                                      F and up 
                                                     2        1.0000000        0.00000000    0.00000000
                                      S - F
                                                     2       13.0100000      158.24159300    0.00000000
                                                     2        5.8620000       17.51182400    0.00000000
                                      P - F
                                                     2       12.4600000       95.23512700    0.00000000
                                                     2        5.2170000       10.04785600    0.00000000
                                      D - F
                                                     2       15.3500000      -17.56886100    0.00000000
                                                     2        4.9800000       -0.58725600    0.00000000
    2          8
                                   No pseudopotential on this center.
    3          1
                                   No pseudopotential on this center.
    4          8
                                   No pseudopotential on this center.
    5          1
                                   No pseudopotential on this center.
    6          8
                                   No pseudopotential on this center.
    7          1
                                   No pseudopotential on this center.
    8          8
                                   No pseudopotential on this center.
    9          1
                                   No pseudopotential on this center.
 ======================================================================================================
 AO basis set in the form of general basis input (Overlap normalization):
      1 0
 S   3 1.00       0.000000000000
      0.1078036500D+02  0.1783892477D+01
      0.9717013000D+01 -0.2000689535D+01
      0.4507755000D+01 -0.7563332022D+00
 S   1 1.00       0.000000000000
      0.1246708000D+01  0.1000000000D+01
 S   1 1.00       0.000000000000
      0.5087070000D+00  0.1000000000D+01
 S   1 1.00       0.000000000000
      0.7343800000D-01  0.1000000000D+01
 S   1 1.00       0.000000000000
      0.3004800000D-01  0.1000000000D+01
 S   1 1.00       0.000000000000
      0.1000000000D-01  0.1000000000D+01
 P   2 1.00       0.000000000000
      0.1756638100D+02  0.8860101480D-01
      0.7705844000D+01 -0.1070746179D+01
 P   2 1.00       0.000000000000
      0.3329138000D+01  0.2001088977D+00
      0.1308104000D+01  0.8379855716D+00
 P   1 1.00       0.000000000000
      0.4544820000D+00  0.1000000000D+01
 P   1 1.00       0.000000000000
      0.7177200000D-01  0.1000000000D+01
 P   1 1.00       0.000000000000
      0.2378400000D-01  0.1000000000D+01
 D   4 1.00       0.000000000000
      0.1951919400D+02  0.3581400317D-01
      0.5864613000D+01  0.1723730152D+00
      0.1928038000D+01  0.4251360376D+00
      0.6065630000D+00  0.6025950533D+00
 D   1 1.00       0.000000000000
      0.1639610000D+00  0.1000000000D+01
 D   1 1.00       0.000000000000
      0.5000000000D-01  0.1000000000D+01
 F   1 1.00       0.000000000000
      0.5000000000D+00  0.1000000000D+01
 ****
      2 0
 S   6 1.00       0.000000000000
      0.5484671660D+04  0.1831074430D-02
      0.8252349460D+03  0.1395017220D-01
      0.1880469580D+03  0.6844507810D-01
      0.5296450000D+02  0.2327143360D+00
      0.1689757040D+02  0.4701928980D+00
      0.5799635340D+01  0.3585208530D+00
 SP   3 1.00       0.000000000000
      0.1553961625D+02 -0.1107775495D+00  0.7087426823D-01
      0.3599933586D+01 -0.1480262627D+00  0.3397528391D+00
      0.1013761750D+01  0.1130767015D+01  0.7271585773D+00
 SP   1 1.00       0.000000000000
      0.2700058226D+00  0.1000000000D+01  0.1000000000D+01
 D   1 1.00       0.000000000000
      0.8000000000D+00  0.1000000000D+01
 ****
      3 0
 S   3 1.00       0.000000000000
      0.1873113696D+02  0.3349460434D-01
      0.2825394365D+01  0.2347269535D+00
      0.6401216923D+00  0.8137573261D+00
 S   1 1.00       0.000000000000
      0.1612777588D+00  0.1000000000D+01
 P   1 1.00       0.000000000000
      0.1100000000D+01  0.1000000000D+01
 ****
      4 0
 S   6 1.00       0.000000000000
      0.5484671660D+04  0.1831074430D-02
      0.8252349460D+03  0.1395017220D-01
      0.1880469580D+03  0.6844507810D-01
      0.5296450000D+02  0.2327143360D+00
      0.1689757040D+02  0.4701928980D+00
      0.5799635340D+01  0.3585208530D+00
 SP   3 1.00       0.000000000000
      0.1553961625D+02 -0.1107775495D+00  0.7087426823D-01
      0.3599933586D+01 -0.1480262627D+00  0.3397528391D+00
      0.1013761750D+01  0.1130767015D+01  0.7271585773D+00
 SP   1 1.00       0.000000000000
      0.2700058226D+00  0.1000000000D+01  0.1000000000D+01
 D   1 1.00       0.000000000000
      0.8000000000D+00  0.1000000000D+01
 ****
      5 0
 S   3 1.00       0.000000000000
      0.1873113696D+02  0.3349460434D-01
      0.2825394365D+01  0.2347269535D+00
      0.6401216923D+00  0.8137573261D+00
 S   1 1.00       0.000000000000
      0.1612777588D+00  0.1000000000D+01
 P   1 1.00       0.000000000000
      0.1100000000D+01  0.1000000000D+01
 ****
      6 0
 S   6 1.00       0.000000000000
      0.5484671660D+04  0.1831074430D-02
      0.8252349460D+03  0.1395017220D-01
      0.1880469580D+03  0.6844507810D-01
      0.5296450000D+02  0.2327143360D+00
      0.1689757040D+02  0.4701928980D+00
      0.5799635340D+01  0.3585208530D+00
 SP   3 1.00       0.000000000000
      0.1553961625D+02 -0.1107775495D+00  0.7087426823D-01
      0.3599933586D+01 -0.1480262627D+00  0.3397528391D+00
      0.1013761750D+01  0.1130767015D+01  0.7271585773D+00
 SP   1 1.00       0.000000000000
      0.2700058226D+00  0.1000000000D+01  0.1000000000D+01
 D   1 1.00       0.000000000000
      0.8000000000D+00  0.1000000000D+01
 ****
      7 0
 S   3 1.00       0.000000000000
      0.1873113696D+02  0.3349460434D-01
      0.2825394365D+01  0.2347269535D+00
      0.6401216923D+00  0.8137573261D+00
 S   1 1.00       0.000000000000
      0.1612777588D+00  0.1000000000D+01
 P   1 1.00       0.000000000000
      0.1100000000D+01  0.1000000000D+01
 ****
      8 0
 S   6 1.00       0.000000000000
      0.5484671660D+04  0.1831074430D-02
      0.8252349460D+03  0.1395017220D-01
      0.1880469580D+03  0.6844507810D-01
      0.5296450000D+02  0.2327143360D+00
      0.1689757040D+02  0.4701928980D+00
      0.5799635340D+01  0.3585208530D+00
 SP   3 1.00       0.000000000000
      0.1553961625D+02 -0.1107775495D+00  0.7087426823D-01
      0.3599933586D+01 -0.1480262627D+00  0.3397528391D+00
      0.1013761750D+01  0.1130767015D+01  0.7271585773D+00
 SP   1 1.00       0.000000000000
      0.2700058226D+00  0.1000000000D+01  0.1000000000D+01
 D   1 1.00       0.000000000000
      0.8000000000D+00  0.1000000000D+01
 ****
      9 0
 S   3 1.00       0.000000000000
      0.1873113696D+02  0.3349460434D-01
      0.2825394365D+01  0.2347269535D+00
      0.6401216923D+00  0.8137573261D+00
 S   1 1.00       0.000000000000
      0.1612777588D+00  0.1000000000D+01
 P   1 1.00       0.000000000000
      0.1100000000D+01  0.1000000000D+01
 ****

 ***********************************************************************************************************************************
 *             ATOMIC CENTER             *        ATOMIC ORBITAL       *                     GAUSSIAN FUNCTIONS                    *
 ***********************************************************************************************************************************
 *                                       * FUNCTION    SHELL    SCALE  *                                                           *
 *    ATOM   X-COORD  Y-COORD  Z-COORD   *  NUMBER     TYPE     FACTOR *  EXPONENT    S-COEF      P-COEF      D-COEF      F-COEF   *
 ***********************************************************************************************************************************
 *     Ti     0.00000  0.00000  0.00000                                                                                            *
+                                                1   S           1.00                                                               
+                                                                      0.107804D+020.756404D+010.000000D+000.000000D+000.000000D+00 
 *                                                                     0.971701D+01-.784765D+010.000000D+000.000000D+000.000000D+00*
 *                                                                     0.450776D+01-.166761D+010.000000D+000.000000D+000.000000D+00*
 *                                               2   S           1.00                                                              *
+                                                                      0.124671D+010.840879D+000.000000D+000.000000D+000.000000D+00 
 *                                               3   S           1.00                                                              *
+                                                                      0.508707D+000.429300D+000.000000D+000.000000D+000.000000D+00 
 *                                               4   S           1.00                                                              *
+                                                                      0.734380D-010.100543D+000.000000D+000.000000D+000.000000D+00 
 *                                               5   S           1.00                                                              *
+                                                                      0.300480D-010.514365D-010.000000D+000.000000D+000.000000D+00 
 *                                               6   S           1.00                                                              *
+                                                                      0.100000D-010.225377D-010.000000D+000.000000D+000.000000D+00 
 *                                           7-  9   P           1.00                                                              *
+                                                                      0.175664D+020.000000D+000.454184D+010.000000D+000.000000D+00 
 *                                                                     0.770584D+010.000000D+00-.195953D+020.000000D+000.000000D+00*
 *                                          10- 12   P           1.00                                                              *
+                                                                      0.332914D+010.000000D+000.128269D+010.000000D+000.000000D+00 
 *                                                                     0.130810D+010.000000D+000.167101D+010.000000D+000.000000D+00*
 *                                          13- 15   P           1.00                                                              *
+                                                                      0.454482D+000.000000D+000.531907D+000.000000D+000.000000D+00 
 *                                          16- 18   P           1.00                                                              *
+                                                                      0.717720D-010.000000D+000.529522D-010.000000D+000.000000D+00 
 *                                          19- 21   P           1.00                                                              *
+                                                                      0.237840D-010.000000D+000.133136D-010.000000D+000.000000D+00 
 *                                          22- 26   D           1.00                                                              *
+                                                                      0.195192D+020.000000D+000.000000D+000.106849D+020.000000D+00 
 *                                                                     0.586461D+010.000000D+000.000000D+000.627043D+010.000000D+00*
 *                                                                     0.192804D+010.000000D+000.000000D+000.220744D+010.000000D+00*
 *                                                                     0.606563D+000.000000D+000.000000D+000.413493D+000.000000D+00*
 *                                          27- 31   D           1.00                                                              *
+                                                                      0.163961D+000.000000D+000.000000D+000.695353D-010.000000D+00 
 *                                          32- 36   D           1.00                                                              *
+                                                                      0.500000D-010.000000D+000.000000D+000.870176D-020.000000D+00 
 *                                          31- 43   F           1.00                                                              *
+                                                                      0.500000D+000.000000D+000.000000D+000.000000D+000.309483D+00 
 *---------------------------------------------------------------------------------------------------------------------------------*
 *     O      0.00000  3.74166  0.00000                                                                                            *
+                                               44   S           1.00                                                               
+                                                                      0.548467D+040.831724D+000.000000D+000.000000D+000.000000D+00 
 *                                                                     0.825235D+030.153082D+010.000000D+000.000000D+000.000000D+00*
 *                                                                     0.188047D+030.247715D+010.000000D+000.000000D+000.000000D+00*
 *                                                                     0.529645D+020.325628D+010.000000D+000.000000D+000.000000D+00*
 *                                                                     0.168976D+020.279289D+010.000000D+000.000000D+000.000000D+00*
 *                                                                     0.579964D+010.954938D+000.000000D+000.000000D+000.000000D+00*
 *                                          45- 48   SP          1.00                                                              *
+                                                                      0.155396D+02-.617934D+000.311694D+010.000000D+000.000000D+00 
 *                                                                     0.359993D+01-.275721D+000.240144D+010.000000D+000.000000D+00*
 *                                                                     0.101376D+010.814208D+000.105436D+010.000000D+000.000000D+00*
 *                                          49- 52   SP          1.00                                                              *
+                                                                      0.270006D+000.266956D+000.277432D+000.000000D+000.000000D+00 
 *                                          53- 57   D           1.00                                                              *
+                                                                      0.800000D+000.000000D+000.000000D+000.111382D+010.000000D+00 
 *---------------------------------------------------------------------------------------------------------------------------------*
 *     H     -1.71008  4.34723  0.00000                                                                                            *
+                                               58   S           1.00                                                               
+                                                                      0.187311D+020.214935D+000.000000D+000.000000D+000.000000D+00 
 *                                                                     0.282539D+010.364571D+000.000000D+000.000000D+000.000000D+00*
 *                                                                     0.640122D+000.415051D+000.000000D+000.000000D+000.000000D+00*
 *                                              59   S           1.00                                                              *
+                                                                      0.161278D+000.181381D+000.000000D+000.000000D+000.000000D+00 
 *                                          60- 62   P           1.00                                                              *
+                                                                      0.110000D+010.000000D+000.160576D+010.000000D+000.000000D+00 
 *---------------------------------------------------------------------------------------------------------------------------------*
 *     O     -3.74166  0.00000  0.00000                                                                                            *
+                                               63   S           1.00                                                               
+                                                                      0.548467D+040.831724D+000.000000D+000.000000D+000.000000D+00 
 *                                                                     0.825235D+030.153082D+010.000000D+000.000000D+000.000000D+00*
 *                                                                     0.188047D+030.247715D+010.000000D+000.000000D+000.000000D+00*
 *                                                                     0.529645D+020.325628D+010.000000D+000.000000D+000.000000D+00*
 *                                                                     0.168976D+020.279289D+010.000000D+000.000000D+000.000000D+00*
 *                                                                     0.579964D+010.954938D+000.000000D+000.000000D+000.000000D+00*
 *                                          64- 67   SP          1.00                                                              *
+                                                                      0.155396D+02-.617934D+000.311694D+010.000000D+000.000000D+00 
 *                                                                     0.359993D+01-.275721D+000.240144D+010.000000D+000.000000D+00*
 *                                                                     0.101376D+010.814208D+000.105436D+010.000000D+000.000000D+00*
 *                                          68- 71   SP          1.00                                                              *
+                                                                      0.270006D+000.266956D+000.277432D+000.000000D+000.000000D+00 
 *                                          72- 76   D           1.00                                                              *
+                                                                      0.800000D+000.000000D+000.000000D+000.111382D+010.000000D+00 
 *---------------------------------------------------------------------------------------------------------------------------------*
 *     H     -4.34723 -1.71008  0.00000                                                                                            *
+                                               77   S           1.00                                                               
+                                                                      0.187311D+020.214935D+000.000000D+000.000000D+000.000000D+00 
 *                                                                     0.282539D+010.364571D+000.000000D+000.000000D+000.000000D+00*
 *                                                                     0.640122D+000.415051D+000.000000D+000.000000D+000.000000D+00*
 *                                              78   S           1.00                                                              *
+                                                                      0.161278D+000.181381D+000.000000D+000.000000D+000.000000D+00 
 *                                          79- 81   P           1.00                                                              *
+                                                                      0.110000D+010.000000D+000.160576D+010.000000D+000.000000D+00 
 *---------------------------------------------------------------------------------------------------------------------------------*
 *     O      0.00000 -3.74166  0.00000                                                                                            *
+                                               82   S           1.00                                                               
+                                                                      0.548467D+040.831724D+000.000000D+000.000000D+000.000000D+00 
 *                                                                     0.825235D+030.153082D+010.000000D+000.000000D+000.000000D+00*
 *                                                                     0.188047D+030.247715D+010.000000D+000.000000D+000.000000D+00*
 *                                                                     0.529645D+020.325628D+010.000000D+000.000000D+000.000000D+00*
 *                                                                     0.168976D+020.279289D+010.000000D+000.000000D+000.000000D+00*
 *                                                                     0.579964D+010.954938D+000.000000D+000.000000D+000.000000D+00*
 *                                          83- 86   SP          1.00                                                              *
+                                                                      0.155396D+02-.617934D+000.311694D+010.000000D+000.000000D+00 
 *                                                                     0.359993D+01-.275721D+000.240144D+010.000000D+000.000000D+00*
 *                                                                     0.101376D+010.814208D+000.105436D+010.000000D+000.000000D+00*
 *                                          87- 90   SP          1.00                                                              *
+                                                                      0.270006D+000.266956D+000.277432D+000.000000D+000.000000D+00 
 *                                          91- 95   D           1.00                                                              *
+                                                                      0.800000D+000.000000D+000.000000D+000.111382D+010.000000D+00 
 *---------------------------------------------------------------------------------------------------------------------------------*
 *     H      1.71008 -4.34723  0.00000                                                                                            *
+                                               96   S           1.00                                                               
+                                                                      0.187311D+020.214935D+000.000000D+000.000000D+000.000000D+00 
 *                                                                     0.282539D+010.364571D+000.000000D+000.000000D+000.000000D+00*
 *                                                                     0.640122D+000.415051D+000.000000D+000.000000D+000.000000D+00*
 *                                              97   S           1.00                                                              *
+                                                                      0.161278D+000.181381D+000.000000D+000.000000D+000.000000D+00 
 *                                          98-100   P           1.00                                                              *
+                                                                      0.110000D+010.000000D+000.160576D+010.000000D+000.000000D+00 
 *---------------------------------------------------------------------------------------------------------------------------------*
 *     O      3.74166  0.00000  0.00000                                                                                            *
+                                              101   S           1.00                                                               
+                                                                      0.548467D+040.831724D+000.000000D+000.000000D+000.000000D+00 
 *                                                                     0.825235D+030.153082D+010.000000D+000.000000D+000.000000D+00*
 *                                                                     0.188047D+030.247715D+010.000000D+000.000000D+000.000000D+00*
 *                                                                     0.529645D+020.325628D+010.000000D+000.000000D+000.000000D+00*
 *                                                                     0.168976D+020.279289D+010.000000D+000.000000D+000.000000D+00*
 *                                                                     0.579964D+010.954938D+000.000000D+000.000000D+000.000000D+00*
 *                                         102-105   SP          1.00                                                              *
+                                                                      0.155396D+02-.617934D+000.311694D+010.000000D+000.000000D+00 
 *                                                                     0.359993D+01-.275721D+000.240144D+010.000000D+000.000000D+00*
 *                                                                     0.101376D+010.814208D+000.105436D+010.000000D+000.000000D+00*
 *                                         106-109   SP          1.00                                                              *
+                                                                      0.270006D+000.266956D+000.277432D+000.000000D+000.000000D+00 
 *                                         110-114   D           1.00                                                              *
+                                                                      0.800000D+000.000000D+000.000000D+000.111382D+010.000000D+00 
 *---------------------------------------------------------------------------------------------------------------------------------*
 *     H      4.34723  1.71008  0.00000                                                                                            *
+                                              115   S           1.00                                                               
+                                                                      0.187311D+020.214935D+000.000000D+000.000000D+000.000000D+00 
 *                                                                     0.282539D+010.364571D+000.000000D+000.000000D+000.000000D+00*
 *                                                                     0.640122D+000.415051D+000.000000D+000.000000D+000.000000D+00*
 *                                             116   S           1.00                                                              *
+                                                                      0.161278D+000.181381D+000.000000D+000.000000D+000.000000D+00 
 *                                         117-119   P           1.00                                                              *
+                                                                      0.110000D+010.000000D+000.160576D+010.000000D+000.000000D+00 
 ***********************************************************************************************************************************
   119 basis functions,   215 primitive gaussians,   129 cartesian basis functions
    24 alpha electrons       24 beta electrons
       nuclear repulsion energy       211.9748438998 Hartrees.
 NAtoms=    9 NActive=    9 NUniq=    9 SFac= 1.00D+00 NAtFMM=   60 NAOKFM=F Big=F
   1 Symmetry operations used in ECPInt.
 ECPInt:  NShTT=     946 NPrTT=    3836 LenC2=     937 LenP2D=    3000.
 LDataN:  DoStor=T MaxTD1= 6 Len=  172
 Harris functional with IExCor=  408 diagonalized for initial guess.
 ExpMin= 1.00D-02 ExpMax= 5.48D+03 ExpMxC= 8.25D+02 IAcc=3 IRadAn=         5 AccDes= 0.00D+00
 HarFok:  IExCor=  408 AccDes= 0.00D+00 IRadAn=         5 IDoV= 1
 ScaDFX=  1.000000  1.000000  1.000000  1.000000
 FoFCou: FMM=F IPFlag=           0 FMFlag=      100000 FMFlg1=           0
         NFxFlg=           0 DoJE=T BraDBF=F KetDBF=T FulRan=T
         Omega=  0.000000  0.000000  1.000000  0.000000  0.000000 ICntrl=     500 IOpCl=  0
         NMat0=    1 NMatS0=    1 NMatT0=    0 NMatD0=    1 NMtDS0=    0 NMtDT0=    0
         I1Cent=           4 NGrid=           0.
 Symmetry not used in FoFCou.
 EnCoef did     3 forward-backward iterations
 EnCoef did     5 forward-backward iterations
 EnCoef did     1 forward-backward iterations
 SCF Done:  E(RB3PW91) =  -361.657679691     A.U. after   13 cycles
             Convg  =    0.5783D-07             -V/T =  2.1114
 NROrb=    119 NOA=    24 NOB=    24 NVA=    95 NVB=    95
   1 Symmetry operations used in ECPInt.
 ECPInt:  NShTT=     946 NPrTT=    3836 LenC2=     937 LenP2D=    3000.
 LDataN:  DoStor=T MaxTD1= 7 Len=  274
 Symmetrizing basis deriv contribution to polar:
 IMax=3 JMax=2 DiffMx= 0.00D+00
 Calling FoFCou, ICntrl=  3107 FMM=F I1Cent=   0 AccDes= 0.00D+00.
 End of G2Drv Frequency-dependent properties file   721 does not exist.
 End of G2Drv Frequency-dependent properties file   722 does not exist.
          IDoAtm=111111111
 End of Minotr Frequency-dependent properties file   721 does not exist.
 End of Minotr Frequency-dependent properties file   722 does not exist.

 **********************************************************************

            Population analysis using the SCF density.

 **********************************************************************

 Alpha  occ. eigenvalues --  -19.14587 -19.14586 -19.14580 -19.14580  -2.57735
 Alpha  occ. eigenvalues --   -1.60889  -1.59918  -1.59918  -0.98349  -0.97110
 Alpha  occ. eigenvalues --   -0.96709  -0.96709  -0.50275  -0.46986  -0.46137
 Alpha  occ. eigenvalues --   -0.46137  -0.38475  -0.34926  -0.34375  -0.34375
 Alpha  occ. eigenvalues --   -0.32993  -0.32009  -0.32009  -0.30202
 Alpha virt. eigenvalues --   -0.15574  -0.13093  -0.13093  -0.12087  -0.01606
 Alpha virt. eigenvalues --   -0.01184   0.01542   0.02165   0.02165   0.04256
 Alpha virt. eigenvalues --    0.09404   0.09920   0.10287   0.12075   0.12075
 Alpha virt. eigenvalues --    0.15610   0.16468   0.16468   0.20311   0.22416
 Alpha virt. eigenvalues --    0.22416   0.25736   0.29042   0.50334   0.50334
 Alpha virt. eigenvalues --    0.52198   0.62695   0.80168   0.80168   0.81487
 Alpha virt. eigenvalues --    0.87951   0.87951   0.90966   0.95707   0.97040
 Alpha virt. eigenvalues --    0.97693   1.01960   1.05848   1.05848   1.06711
 Alpha virt. eigenvalues --    1.06711   1.15672   1.16430   1.17193   1.17193
 Alpha virt. eigenvalues --    1.18120   1.21256   1.25783   1.26063   1.29147
 Alpha virt. eigenvalues --    1.33125   1.33125   1.36013   1.48475   1.48475
 Alpha virt. eigenvalues --    1.58667   1.59037   1.59037   1.60289   1.60289
 Alpha virt. eigenvalues --    1.64000   1.67170   1.72823   1.84433   1.89175
 Alpha virt. eigenvalues --    1.89175   1.93333   1.93333   2.00800   2.09620
 Alpha virt. eigenvalues --    2.15104   2.26045   2.36075   2.36075   2.36900
 Alpha virt. eigenvalues --    2.43367   2.44871   2.64532   2.64730   2.64730
 Alpha virt. eigenvalues --    2.64841   2.64841   2.65249   2.66098   2.71412
 Alpha virt. eigenvalues --    2.80668   2.80668   3.49945   3.49945   3.50430
 Alpha virt. eigenvalues --    3.52395  24.08572  24.42286  24.42286  35.23769
     Molecular Orbital Coefficients:
                           1         2         3         4         5
                           O         O         O         O         O
     Eigenvalues --   -19.14587 -19.14586 -19.14580 -19.14580  -2.57735
   1 1   Ti 1S         -0.00002   0.00000   0.00000   0.00000   0.40045
   2        2S          0.00044   0.00000   0.00000   0.00000   0.73387
   3        3S         -0.00332   0.00000   0.00000   0.00000   0.50843
   4        4S          0.01804   0.00001   0.00000   0.00000   0.00437
   5        5S         -0.00485   0.00000   0.00000   0.00000  -0.00172
   6        6S          0.00103   0.00000   0.00000   0.00000   0.00057
   7        7PX         0.00000   0.00000   0.00017   0.00000   0.00000
   8        7PY         0.00000   0.00000   0.00000  -0.00017   0.00000
   9        7PZ         0.00000   0.00000   0.00000   0.00000   0.00000
  10        8PX         0.00000   0.00000   0.00086   0.00002   0.00000
  11        8PY         0.00000   0.00000   0.00002  -0.00086   0.00000
  12        8PZ         0.00000   0.00000   0.00000   0.00000   0.00000
  13        9PX         0.00000   0.00000  -0.00173  -0.00005   0.00000
  14        9PY         0.00000   0.00000  -0.00005   0.00173   0.00000
  15        9PZ         0.00000   0.00000   0.00000   0.00000   0.00000
  16       10PX         0.00000   0.00000  -0.00505   0.00052   0.00000
  17       10PY         0.00000   0.00000   0.00052   0.00505   0.00000
  18       10PZ         0.00000   0.00000   0.00000   0.00000   0.00000
  19       11PX         0.00000   0.00000   0.00101   0.00014   0.00000
  20       11PY         0.00000   0.00000   0.00014  -0.00101   0.00000
  21       11PZ         0.00000   0.00000   0.00000   0.00000   0.00000
  22       12D 0       -0.00004   0.00000   0.00000   0.00000   0.00586
  23       12D+1        0.00000   0.00000   0.00000   0.00000   0.00000
  24       12D-1        0.00000   0.00000   0.00000   0.00000   0.00000
  25       12D+2        0.00000   0.00011   0.00000   0.00000   0.00000
  26       12D-2        0.00000   0.00006   0.00000   0.00000   0.00000
  27       13D 0       -0.00578   0.00000   0.00000   0.00000   0.00256
  28       13D+1        0.00000   0.00000   0.00000   0.00000   0.00000
  29       13D-1        0.00000   0.00000   0.00000   0.00000   0.00000
  30       13D+2        0.00001  -0.01219   0.00000   0.00000   0.00000
  31       13D-2        0.00000  -0.00061   0.00000   0.00000   0.00000
  32       14D 0       -0.00071   0.00000   0.00000   0.00000  -0.00083
  33       14D+1        0.00000   0.00000   0.00000   0.00000   0.00000
  34       14D-1        0.00000   0.00000   0.00000   0.00000   0.00000
  35       14D+2        0.00000   0.00006   0.00000   0.00000   0.00000
  36       14D-2        0.00000   0.00084   0.00000   0.00000   0.00000
  37       15F 0        0.00000   0.00000   0.00000   0.00000   0.00000
  38       15F+1        0.00000   0.00000   0.00040  -0.00004   0.00000
  39       15F-1        0.00000   0.00000  -0.00004  -0.00040   0.00000
  40       15F+2        0.00000   0.00000   0.00000   0.00000   0.00000
  41       15F-2        0.00000   0.00000   0.00000   0.00000   0.00000
  42       15F+3        0.00000   0.00000  -0.00035   0.00011   0.00000
  43       15F-3        0.00000   0.00000  -0.00011  -0.00035   0.00000
  44 2   O  1S          0.49736   0.49780   0.00029   0.70361  -0.00136
  45        2S          0.01512   0.01508   0.00002   0.02004   0.00156
  46        2PX        -0.00076  -0.00087  -0.00005  -0.00121  -0.00006
  47        2PY        -0.00035  -0.00023  -0.00002  -0.00018  -0.00249
  48        2PZ         0.00000   0.00000   0.00000   0.00000   0.00000
  49        3S         -0.00978  -0.01116   0.00000  -0.00880   0.00438
  50        3PX        -0.00018   0.00047   0.00040   0.00008  -0.00031
  51        3PY         0.00327   0.00368   0.00014   0.00159  -0.00304
  52        3PZ         0.00000   0.00000   0.00000   0.00000   0.00000
  53        4D 0        0.00008  -0.00007   0.00000  -0.00022  -0.00066
  54        4D+1        0.00000   0.00000   0.00000   0.00000   0.00000
  55        4D-1        0.00000   0.00000   0.00000   0.00000   0.00000
  56        4D+2        0.00052   0.00072   0.00003   0.00067  -0.00098
  57        4D-2       -0.00026  -0.00031  -0.00006  -0.00041   0.00008
  58 3   H  1S         -0.00041  -0.00028   0.00007  -0.00084   0.00001
  59        2S         -0.00045   0.00080  -0.00049   0.00052  -0.00033
  60        3PX        -0.00089  -0.00096   0.00001  -0.00137   0.00006
  61        3PY         0.00028   0.00013   0.00003   0.00038   0.00008
  62        3PZ         0.00000   0.00000   0.00000   0.00000   0.00000
  63 4   O  1S          0.49779  -0.49737   0.70360  -0.00029  -0.00136
  64        2S          0.01513  -0.01506   0.02004  -0.00002   0.00156
  65        2PX         0.00035  -0.00023   0.00018  -0.00002   0.00249
  66        2PY        -0.00076   0.00087  -0.00121   0.00005  -0.00006
  67        2PZ         0.00000   0.00000   0.00000   0.00000   0.00000
  68        3S         -0.00978   0.01115  -0.00880   0.00000   0.00438
  69        3PX        -0.00327   0.00368  -0.00159   0.00014   0.00304
  70        3PY        -0.00018  -0.00047   0.00008  -0.00040  -0.00031
  71        3PZ         0.00000   0.00000   0.00000   0.00000   0.00000
  72        4D 0        0.00008   0.00007  -0.00022   0.00000  -0.00066
  73        4D+1        0.00000   0.00000   0.00000   0.00000   0.00000
  74        4D-1        0.00000   0.00000   0.00000   0.00000   0.00000
  75        4D+2       -0.00052   0.00071  -0.00067   0.00003   0.00098
  76        4D-2        0.00026  -0.00031   0.00041  -0.00006  -0.00008
  77 5   H  1S         -0.00041   0.00028  -0.00084  -0.00007   0.00001
  78        2S         -0.00045  -0.00081   0.00052   0.00049  -0.00033
  79        3PX        -0.00028   0.00013  -0.00038   0.00003  -0.00008
  80        3PY        -0.00090   0.00096  -0.00137  -0.00001   0.00006
  81        3PZ         0.00000   0.00000   0.00000   0.00000   0.00000
  82 6   O  1S          0.49737   0.49780  -0.00029  -0.70360  -0.00136
  83        2S          0.01512   0.01508  -0.00002  -0.02004   0.00156
  84        2PX         0.00076   0.00087  -0.00005  -0.00121   0.00006
  85        2PY         0.00035   0.00023  -0.00002  -0.00018   0.00249
  86        2PZ         0.00000   0.00000   0.00000   0.00000   0.00000
  87        3S         -0.00978  -0.01116   0.00000   0.00880   0.00438
  88        3PX         0.00018  -0.00047   0.00040   0.00008   0.00031
  89        3PY        -0.00327  -0.00368   0.00014   0.00159   0.00304
  90        3PZ         0.00000   0.00000   0.00000   0.00000   0.00000
  91        4D 0        0.00008  -0.00007   0.00000   0.00022  -0.00066
  92        4D+1        0.00000   0.00000   0.00000   0.00000   0.00000
  93        4D-1        0.00000   0.00000   0.00000   0.00000   0.00000
  94        4D+2        0.00052   0.00072  -0.00003  -0.00067  -0.00098
  95        4D-2       -0.00026  -0.00031   0.00006   0.00041   0.00008
  96 7   H  1S         -0.00041  -0.00028  -0.00007   0.00084   0.00001
  97        2S         -0.00045   0.00080   0.00049  -0.00052  -0.00033
  98        3PX         0.00089   0.00096   0.00001  -0.00137  -0.00006
  99        3PY        -0.00028  -0.00013   0.00003   0.00038  -0.00008
 100        3PZ         0.00000   0.00000   0.00000   0.00000   0.00000
 101 8   O  1S          0.49779  -0.49737  -0.70360   0.00029  -0.00136
 102        2S          0.01513  -0.01506  -0.02004   0.00002   0.00156
 103        2PX        -0.00035   0.00023   0.00018  -0.00002  -0.00249
 104        2PY         0.00076  -0.00087  -0.00121   0.00005   0.00006
 105        2PZ         0.00000   0.00000   0.00000   0.00000   0.00000
 106        3S         -0.00978   0.01115   0.00880   0.00000   0.00438
 107        3PX         0.00327  -0.00368  -0.00159   0.00014  -0.00304
 108        3PY         0.00018   0.00047   0.00008  -0.00040   0.00031
 109        3PZ         0.00000   0.00000   0.00000   0.00000   0.00000
 110        4D 0        0.00008   0.00007   0.00022   0.00000  -0.00066
 111        4D+1        0.00000   0.00000   0.00000   0.00000   0.00000
 112        4D-1        0.00000   0.00000   0.00000   0.00000   0.00000
 113        4D+2       -0.00052   0.00071   0.00067  -0.00003   0.00098
 114        4D-2        0.00026  -0.00031  -0.00041   0.00006  -0.00008
 115 9   H  1S         -0.00041   0.00028   0.00084   0.00007   0.00001
 116        2S         -0.00045  -0.00081  -0.00052  -0.00049  -0.00033
 117        3PX         0.00028  -0.00013  -0.00038   0.00003   0.00008
 118        3PY         0.00090  -0.00096  -0.00137  -0.00001  -0.00006
 119        3PZ         0.00000   0.00000   0.00000   0.00000   0.00000
                           6         7         8         9        10
                           O         O         O         O         O
     Eigenvalues --    -1.60889  -1.59918  -1.59918  -0.98349  -0.97110
   1 1   Ti 1S          0.00000   0.00000   0.00000  -0.03803   0.00000
   2        2S          0.00000   0.00000   0.00000  -0.09338   0.00000
   3        3S          0.00000   0.00000   0.00000  -0.02170   0.00000
   4        4S          0.00000   0.00000   0.00000  -0.01258   0.00000
   5        5S          0.00000   0.00000   0.00000   0.02413   0.00000
   6        6S          0.00000   0.00000   0.00000  -0.00280   0.00000
   7        7PX         0.00000  -0.07489   0.07586   0.00000   0.00000
   8        7PY         0.00000   0.07586   0.07489   0.00000   0.00000
   9        7PZ         0.10770   0.00000   0.00000   0.00000   0.00000
  10        8PX         0.00000  -0.51191   0.51853   0.00000   0.00000
  11        8PY         0.00000   0.51853   0.51191   0.00000   0.00000
  12        8PZ         0.73518   0.00000   0.00000   0.00000   0.00000
  13        9PX         0.00000  -0.27376   0.27729   0.00000   0.00000
  14        9PY         0.00000   0.27729   0.27376   0.00000   0.00000
  15        9PZ         0.39273   0.00000   0.00000   0.00000   0.00000
  16       10PX         0.00000  -0.00402   0.00422   0.00000   0.00000
  17       10PY         0.00000   0.00422   0.00402   0.00000   0.00000
  18       10PZ         0.00495   0.00000   0.00000   0.00000   0.00000
  19       11PX         0.00000   0.00062  -0.00073   0.00000   0.00000
  20       11PY         0.00000  -0.00073  -0.00062   0.00000   0.00000
  21       11PZ        -0.00063   0.00000   0.00000   0.00000   0.00000
  22       12D 0        0.00000   0.00000   0.00000  -0.03832   0.00000
  23       12D+1        0.00000   0.00000   0.00000   0.00000   0.00000
  24       12D-1        0.00000   0.00000   0.00000   0.00000   0.00000
  25       12D+2        0.00000   0.00000   0.00000   0.00000  -0.06688
  26       12D-2        0.00000   0.00000   0.00000   0.00000  -0.00667
  27       13D 0        0.00000   0.00000   0.00000   0.00839   0.00000
  28       13D+1        0.00000   0.00000   0.00000   0.00000   0.00000
  29       13D-1        0.00000   0.00000   0.00000   0.00000   0.00000
  30       13D+2        0.00000   0.00000   0.00000   0.00000   0.00551
  31       13D-2        0.00000   0.00000   0.00000   0.00000  -0.00614
  32       14D 0        0.00000   0.00000   0.00000  -0.00654   0.00000
  33       14D+1        0.00000   0.00000   0.00000   0.00000   0.00000
  34       14D-1        0.00000   0.00000   0.00000   0.00000   0.00000
  35       14D+2        0.00000   0.00000   0.00000   0.00000  -0.01071
  36       14D-2        0.00000   0.00000   0.00000   0.00000  -0.00762
  37       15F 0        0.00195   0.00000   0.00000   0.00000   0.00000
  38       15F+1        0.00000  -0.00018   0.00014   0.00000   0.00000
  39       15F-1        0.00000   0.00014   0.00018   0.00000   0.00000
  40       15F+2        0.00000   0.00000   0.00000   0.00000   0.00000
  41       15F-2        0.00000   0.00000   0.00000   0.00000   0.00000
  42       15F+3        0.00000  -0.00212   0.00311   0.00000   0.00000
  43       15F-3        0.00000  -0.00311  -0.00212   0.00000   0.00000
  44 2   O  1S          0.00000  -0.00742  -0.00711  -0.10757  -0.10898
  45        2S          0.00000   0.01592   0.01555   0.23226   0.23843
  46        2PX         0.00000  -0.00280   0.00077  -0.04871  -0.05219
  47        2PY         0.00000  -0.01167  -0.01125  -0.00164   0.00073
  48        2PZ         0.00293   0.00000   0.00000   0.00000   0.00000
  49        3S          0.00000   0.01250   0.01157   0.24830   0.24883
  50        3PX         0.00000  -0.00246   0.00095  -0.01853  -0.01927
  51        3PY         0.00000  -0.00331  -0.00329  -0.02208  -0.01665
  52        3PZ         0.00214   0.00000   0.00000   0.00000   0.00000
  53        4D 0        0.00000  -0.00035  -0.00026  -0.00469  -0.00364
  54        4D+1       -0.00010   0.00000   0.00000   0.00000   0.00000
  55        4D-1       -0.00110   0.00000   0.00000   0.00000   0.00000
  56        4D+2        0.00000  -0.00032  -0.00045  -0.00152  -0.00194
  57        4D-2        0.00000   0.00101  -0.00071  -0.00099  -0.00097
  58 3   H  1S          0.00000   0.00241   0.00159   0.08332   0.08570
  59        2S          0.00000  -0.00113  -0.00055   0.00475   0.00137
  60        3PX         0.00000   0.00046   0.00019   0.01123   0.01229
  61        3PY         0.00000  -0.00071  -0.00041  -0.00403  -0.00358
  62        3PZ         0.00001   0.00000   0.00000   0.00000   0.00000
  63 4   O  1S          0.00000  -0.00711   0.00742  -0.10757   0.10898
  64        2S          0.00000   0.01555  -0.01592   0.23226  -0.23843
  65        2PX         0.00000   0.01125  -0.01167   0.00164   0.00073
  66        2PY         0.00000   0.00077   0.00280  -0.04871   0.05219
  67        2PZ         0.00293   0.00000   0.00000   0.00000   0.00000
  68        3S          0.00000   0.01157  -0.01250   0.24830  -0.24883
  69        3PX         0.00000   0.00329  -0.00331   0.02208  -0.01665
  70        3PY         0.00000   0.00095   0.00246  -0.01853   0.01927
  71        3PZ         0.00214   0.00000   0.00000   0.00000   0.00000
  72        4D 0        0.00000  -0.00026   0.00035  -0.00469   0.00364
  73        4D+1        0.00110   0.00000   0.00000   0.00000   0.00000
  74        4D-1       -0.00010   0.00000   0.00000   0.00000   0.00000
  75        4D+2        0.00000   0.00045  -0.00032   0.00152  -0.00194
  76        4D-2        0.00000   0.00071   0.00101   0.00099  -0.00097
  77 5   H  1S          0.00000   0.00159  -0.00241   0.08332  -0.08570
  78        2S          0.00000  -0.00055   0.00113   0.00475  -0.00137
  79        3PX         0.00000   0.00041  -0.00071   0.00403  -0.00358
  80        3PY         0.00000   0.00019  -0.00046   0.01123  -0.01229
  81        3PZ         0.00001   0.00000   0.00000   0.00000   0.00000
  82 6   O  1S          0.00000   0.00742   0.00711  -0.10757  -0.10898
  83        2S          0.00000  -0.01592  -0.01555   0.23226   0.23843
  84        2PX         0.00000  -0.00280   0.00077   0.04871   0.05219
  85        2PY         0.00000  -0.01167  -0.01125   0.00164  -0.00073
  86        2PZ         0.00293   0.00000   0.00000   0.00000   0.00000
  87        3S          0.00000  -0.01250  -0.01157   0.24830   0.24883
  88        3PX         0.00000  -0.00246   0.00095   0.01853   0.01927
  89        3PY         0.00000  -0.00331  -0.00329   0.02208   0.01665
  90        3PZ         0.00214   0.00000   0.00000   0.00000   0.00000
  91        4D 0        0.00000   0.00035   0.00026  -0.00469  -0.00364
  92        4D+1        0.00010   0.00000   0.00000   0.00000   0.00000
  93        4D-1        0.00110   0.00000   0.00000   0.00000   0.00000
  94        4D+2        0.00000   0.00032   0.00045  -0.00152  -0.00194
  95        4D-2        0.00000  -0.00101   0.00071  -0.00099  -0.00097
  96 7   H  1S          0.00000  -0.00241  -0.00159   0.08332   0.08570
  97        2S          0.00000   0.00113   0.00055   0.00475   0.00137
  98        3PX         0.00000   0.00046   0.00019  -0.01123  -0.01229
  99        3PY         0.00000  -0.00071  -0.00041   0.00403   0.00358
 100        3PZ         0.00001   0.00000   0.00000   0.00000   0.00000
 101 8   O  1S          0.00000   0.00711  -0.00742  -0.10757   0.10898
 102        2S          0.00000  -0.01555   0.01592   0.23226  -0.23843
 103        2PX         0.00000   0.01125  -0.01167  -0.00164  -0.00073
 104        2PY         0.00000   0.00077   0.00280   0.04871  -0.05219
 105        2PZ         0.00293   0.00000   0.00000   0.00000   0.00000
 106        3S          0.00000  -0.01157   0.01250   0.24830  -0.24883
 107        3PX         0.00000   0.00329  -0.00331  -0.02208   0.01665
 108        3PY         0.00000   0.00095   0.00246   0.01853  -0.01927
 109        3PZ         0.00214   0.00000   0.00000   0.00000   0.00000
 110        4D 0        0.00000   0.00026  -0.00035  -0.00469   0.00364
 111        4D+1       -0.00110   0.00000   0.00000   0.00000   0.00000
 112        4D-1        0.00010   0.00000   0.00000   0.00000   0.00000
 113        4D+2        0.00000  -0.00045   0.00032   0.00152  -0.00194
 114        4D-2        0.00000  -0.00071  -0.00101   0.00099  -0.00097
 115 9   H  1S          0.00000  -0.00159   0.00241   0.08332  -0.08570
 116        2S          0.00000   0.00055  -0.00113   0.00475  -0.00137
 117        3PX         0.00000   0.00041  -0.00071  -0.00403   0.00358
 118        3PY         0.00000   0.00019  -0.00046  -0.01123   0.01229
 119        3PZ         0.00001   0.00000   0.00000   0.00000   0.00000
                          11        12        13        14        15
                           O         O         O         O         O
     Eigenvalues --    -0.96709  -0.96709  -0.50275  -0.46986  -0.46137
   1 1   Ti 1S          0.00000   0.00000   0.00000  -0.06542   0.00000
   2        2S          0.00000   0.00000   0.00000  -0.16698   0.00000
   3        3S          0.00000   0.00000   0.00000  -0.06712   0.00000
   4        4S          0.00000   0.00000   0.00000   0.22407   0.00000
   5        5S          0.00000   0.00000   0.00000  -0.04312   0.00000
   6        6S          0.00000   0.00000   0.00000   0.00668   0.00000
   7        7PX         0.00527   0.01495   0.00000   0.00000   0.01418
   8        7PY        -0.01495   0.00527   0.00000   0.00000  -0.00652
   9        7PZ         0.00000   0.00000   0.00000   0.00000   0.00000
  10        8PX         0.03766   0.10680   0.00000   0.00000   0.10497
  11        8PY        -0.10680   0.03766   0.00000   0.00000  -0.04822
  12        8PZ         0.00000   0.00000   0.00000   0.00000   0.00000
  13        9PX         0.01457   0.04071   0.00000   0.00000   0.02181
  14        9PY        -0.04071   0.01457   0.00000   0.00000  -0.01355
  15        9PZ         0.00000   0.00000   0.00000   0.00000   0.00000
  16       10PX        -0.00279   0.00126   0.00000   0.00000  -0.08180
  17       10PY        -0.00126  -0.00279   0.00000   0.00000   0.05113
  18       10PZ         0.00000   0.00000   0.00000   0.00000   0.00000
  19       11PX        -0.00251  -0.00808   0.00000   0.00000   0.00467
  20       11PY         0.00808  -0.00251   0.00000   0.00000  -0.00073
  21       11PZ         0.00000   0.00000   0.00000   0.00000   0.00000
  22       12D 0        0.00000   0.00000   0.00000  -0.14872   0.00000
  23       12D+1        0.00000   0.00000   0.00000   0.00000   0.00000
  24       12D-1        0.00000   0.00000   0.00000   0.00000   0.00000
  25       12D+2        0.00000   0.00000  -0.18980   0.00000   0.00000
  26       12D-2        0.00000   0.00000   0.10384   0.00000   0.00000
  27       13D 0        0.00000   0.00000   0.00000  -0.03892   0.00000
  28       13D+1        0.00000   0.00000   0.00000   0.00000   0.00000
  29       13D-1        0.00000   0.00000   0.00000   0.00000   0.00000
  30       13D+2        0.00000   0.00000  -0.07155   0.00000   0.00000
  31       13D-2        0.00000   0.00000   0.06165   0.00000   0.00000
  32       14D 0        0.00000   0.00000   0.00000  -0.00846   0.00000
  33       14D+1        0.00000   0.00000   0.00000   0.00000   0.00000
  34       14D-1        0.00000   0.00000   0.00000   0.00000   0.00000
  35       14D+2        0.00000   0.00000  -0.01204   0.00000   0.00000
  36       14D-2        0.00000   0.00000   0.02303   0.00000   0.00000
  37       15F 0        0.00000   0.00000   0.00000   0.00000   0.00000
  38       15F+1        0.00206   0.00490   0.00000   0.00000   0.00638
  39       15F-1       -0.00490   0.00206   0.00000   0.00000  -0.00321
  40       15F+2        0.00000   0.00000   0.00000   0.00000   0.00000
  41       15F-2        0.00000   0.00000   0.00000   0.00000   0.00000
  42       15F+3        0.00026  -0.00710   0.00000   0.00000  -0.01091
  43       15F-3       -0.00710  -0.00026   0.00000   0.00000   0.01330
  44 2   O  1S         -0.14725   0.04326  -0.02754  -0.01870   0.00694
  45        2S          0.32317  -0.09520   0.06182   0.03706  -0.01910
  46        2PX        -0.07178   0.01740   0.21293   0.19163   0.00674
  47        2PY         0.00734  -0.00146  -0.12579  -0.18758  -0.04012
  48        2PZ         0.00000   0.00000   0.00000   0.00000   0.00000
  49        3S          0.33102  -0.09597   0.09692   0.08189  -0.02271
  50        3PX        -0.02771   0.00238   0.11346   0.10233   0.00213
  51        3PY        -0.01491   0.00546  -0.06902  -0.11781  -0.03222
  52        3PZ         0.00000   0.00000   0.00000   0.00000   0.00000
  53        4D 0       -0.00436   0.00124   0.00210   0.00030  -0.00177
  54        4D+1        0.00000   0.00000   0.00000   0.00000   0.00000
  55        4D-1        0.00000   0.00000   0.00000   0.00000   0.00000
  56        4D+2       -0.00006   0.00037  -0.01220  -0.01272  -0.00058
  57        4D-2       -0.00129   0.00150   0.00023   0.00495   0.00295
  58 3   H  1S          0.11824  -0.03296  -0.12695  -0.12863  -0.00864
  59        2S          0.00937  -0.00318  -0.06776  -0.08061  -0.00808
  60        3PX         0.01621  -0.00504  -0.00576  -0.00895  -0.00293
  61        3PY        -0.00557   0.00129   0.00214  -0.00148  -0.00197
  62        3PZ         0.00000   0.00000   0.00000   0.00000   0.00000
  63 4   O  1S         -0.04326  -0.14725   0.02754  -0.01870  -0.04691
  64        2S          0.09520   0.32317  -0.06182   0.03706   0.10334
  65        2PX        -0.00146  -0.00734  -0.12579   0.18758   0.16687
  66        2PY        -0.01740  -0.07178  -0.21293   0.19163   0.33350
  67        2PZ         0.00000   0.00000   0.00000   0.00000   0.00000
  68        3S          0.09597   0.33102  -0.09692   0.08189   0.18853
  69        3PX         0.00546   0.01491  -0.06902   0.11781   0.10163
  70        3PY        -0.00238  -0.02771  -0.11346   0.10233   0.19074
  71        3PZ         0.00000   0.00000   0.00000   0.00000   0.00000
  72        4D 0       -0.00124  -0.00436  -0.00210   0.00030   0.00484
  73        4D+1        0.00000   0.00000   0.00000   0.00000   0.00000
  74        4D-1        0.00000   0.00000   0.00000   0.00000   0.00000
  75        4D+2        0.00037   0.00006  -0.01220   0.01272   0.01551
  76        4D-2        0.00150   0.00129   0.00023  -0.00495  -0.00133
  77 5   H  1S          0.03296   0.11824   0.12695  -0.12863  -0.18847
  78        2S          0.00318   0.00937   0.06776  -0.08061  -0.12110
  79        3PX         0.00129   0.00557   0.00214   0.00148  -0.00252
  80        3PY         0.00504   0.01621   0.00576  -0.00895  -0.00947
  81        3PZ         0.00000   0.00000   0.00000   0.00000   0.00000
  82 6   O  1S          0.14725  -0.04326  -0.02754  -0.01870  -0.00694
  83        2S         -0.32317   0.09520   0.06182   0.03706   0.01910
  84        2PX        -0.07178   0.01740  -0.21293  -0.19163   0.00674
  85        2PY         0.00734  -0.00146   0.12579   0.18758  -0.04012
  86        2PZ         0.00000   0.00000   0.00000   0.00000   0.00000
  87        3S         -0.33102   0.09597   0.09692   0.08189   0.02271
  88        3PX        -0.02771   0.00238  -0.11346  -0.10233   0.00213
  89        3PY        -0.01491   0.00546   0.06902   0.11781  -0.03222
  90        3PZ         0.00000   0.00000   0.00000   0.00000   0.00000
  91        4D 0        0.00436  -0.00124   0.00210   0.00030   0.00177
  92        4D+1        0.00000   0.00000   0.00000   0.00000   0.00000
  93        4D-1        0.00000   0.00000   0.00000   0.00000   0.00000
  94        4D+2        0.00006  -0.00037  -0.01220  -0.01272   0.00058
  95        4D-2        0.00129  -0.00150   0.00023   0.00495  -0.00295
  96 7   H  1S         -0.11824   0.03296  -0.12695  -0.12863   0.00864
  97        2S         -0.00937   0.00318  -0.06776  -0.08061   0.00808
  98        3PX         0.01621  -0.00504   0.00576   0.00895  -0.00293
  99        3PY        -0.00557   0.00129  -0.00214   0.00148  -0.00197
 100        3PZ         0.00000   0.00000   0.00000   0.00000   0.00000
 101 8   O  1S          0.04326   0.14725   0.02754  -0.01870   0.04691
 102        2S         -0.09520  -0.32317  -0.06182   0.03706  -0.10334
 103        2PX        -0.00146  -0.00734   0.12579  -0.18758   0.16687
 104        2PY        -0.01740  -0.07178   0.21293  -0.19163   0.33350
 105        2PZ         0.00000   0.00000   0.00000   0.00000   0.00000
 106        3S         -0.09597  -0.33102  -0.09692   0.08189  -0.18853
 107        3PX         0.00546   0.01491   0.06902  -0.11781   0.10163
 108        3PY        -0.00238  -0.02771   0.11346  -0.10233   0.19074
 109        3PZ         0.00000   0.00000   0.00000   0.00000   0.00000
 110        4D 0        0.00124   0.00436  -0.00210   0.00030  -0.00484
 111        4D+1        0.00000   0.00000   0.00000   0.00000   0.00000
 112        4D-1        0.00000   0.00000   0.00000   0.00000   0.00000
 113        4D+2       -0.00037  -0.00006  -0.01220   0.01272  -0.01551
 114        4D-2       -0.00150  -0.00129   0.00023  -0.00495   0.00133
 115 9   H  1S         -0.03296  -0.11824   0.12695  -0.12863   0.18847
 116        2S         -0.00318  -0.00937   0.06776  -0.08061   0.12110
 117        3PX         0.00129   0.00557  -0.00214  -0.00148  -0.00252
 118        3PY         0.00504   0.01621  -0.00576   0.00895  -0.00947
 119        3PZ         0.00000   0.00000   0.00000   0.00000   0.00000
                          16        17        18        19        20
                           O         O         O         O         O
     Eigenvalues --    -0.46137  -0.38475  -0.34926  -0.34375  -0.34375
   1 1   Ti 1S          0.00000   0.00000  -0.05017   0.00000   0.00000
   2        2S          0.00000   0.00000  -0.12763   0.00000   0.00000
   3        3S          0.00000   0.00000  -0.05965   0.00000   0.00000
   4        4S          0.00000   0.00000   0.23126   0.00000   0.00000
   5        5S          0.00000   0.00000  -0.17289   0.00000   0.00000
   6        6S          0.00000   0.00000   0.02660   0.00000   0.00000
   7        7PX        -0.00652   0.00000   0.00000   0.00000   0.00000
   8        7PY        -0.01418   0.00000   0.00000   0.00000   0.00000
   9        7PZ         0.00000   0.00000   0.00000   0.00000   0.00000
  10        8PX        -0.04822   0.00000   0.00000   0.00000   0.00000
  11        8PY        -0.10497   0.00000   0.00000   0.00000   0.00000
  12        8PZ         0.00000   0.00000   0.00000   0.00000   0.00000
  13        9PX        -0.01355   0.00000   0.00000   0.00000   0.00000
  14        9PY        -0.02181   0.00000   0.00000   0.00000   0.00000
  15        9PZ         0.00000   0.00000   0.00000   0.00000   0.00000
  16       10PX         0.05113   0.00000   0.00000   0.00000   0.00000
  17       10PY         0.08180   0.00000   0.00000   0.00000   0.00000
  18       10PZ         0.00000   0.00000   0.00000   0.00000   0.00000
  19       11PX        -0.00073   0.00000   0.00000   0.00000   0.00000
  20       11PY        -0.00467   0.00000   0.00000   0.00000   0.00000
  21       11PZ         0.00000   0.00000   0.00000   0.00000   0.00000
  22       12D 0        0.00000   0.00000  -0.18714   0.00000   0.00000
  23       12D+1        0.00000   0.00000   0.00000  -0.32234  -0.01962
  24       12D-1        0.00000   0.00000   0.00000  -0.01962   0.32234
  25       12D+2        0.00000   0.34897   0.00000   0.00000   0.00000
  26       12D-2        0.00000   0.14945   0.00000   0.00000   0.00000
  27       13D 0        0.00000   0.00000  -0.05327   0.00000   0.00000
  28       13D+1        0.00000   0.00000   0.00000  -0.13935  -0.01121
  29       13D-1        0.00000   0.00000   0.00000  -0.01121   0.13935
  30       13D+2        0.00000   0.09499   0.00000   0.00000   0.00000
  31       13D-2        0.00000   0.08960   0.00000   0.00000   0.00000
  32       14D 0        0.00000   0.00000   0.03750   0.00000   0.00000
  33       14D+1        0.00000   0.00000   0.00000  -0.06697  -0.00845
  34       14D-1        0.00000   0.00000   0.00000  -0.00845   0.06697
  35       14D+2        0.00000  -0.06053   0.00000   0.00000   0.00000
  36       14D-2        0.00000   0.03271   0.00000   0.00000   0.00000
  37       15F 0        0.00000   0.00000   0.00000   0.00000   0.00000
  38       15F+1       -0.00321   0.00000   0.00000   0.00000   0.00000
  39       15F-1       -0.00638   0.00000   0.00000   0.00000   0.00000
  40       15F+2        0.00000   0.00000   0.00000   0.00000   0.00000
  41       15F-2        0.00000   0.00000   0.00000   0.00000   0.00000
  42       15F+3       -0.01330   0.00000   0.00000   0.00000   0.00000
  43       15F-3       -0.01091   0.00000   0.00000   0.00000   0.00000
  44 2   O  1S         -0.04691  -0.01823   0.02887   0.00000   0.00000
  45        2S          0.10334   0.04696  -0.07093   0.00000   0.00000
  46        2PX         0.33350   0.12786  -0.21163   0.00000   0.00000
  47        2PY        -0.16687   0.23561  -0.20633   0.00000   0.00000
  48        2PZ         0.00000   0.00000   0.00000  -0.01937   0.38862
  49        3S          0.18853   0.06147  -0.11297   0.00000   0.00000
  50        3PX         0.19074   0.07892  -0.13731   0.00000   0.00000
  51        3PY        -0.10163   0.15975  -0.15174   0.00000   0.00000
  52        3PZ         0.00000   0.00000   0.00000  -0.01117   0.27222
  53        4D 0        0.00484   0.00531  -0.00726   0.00000   0.00000
  54        4D+1        0.00000   0.00000   0.00000  -0.00124  -0.01220
  55        4D-1        0.00000   0.00000   0.00000   0.00034  -0.00959
  56        4D+2       -0.01551   0.00433   0.00239   0.00000   0.00000
  57        4D-2        0.00133  -0.01123   0.00823   0.00000   0.00000
  58 3   H  1S         -0.18847  -0.00996   0.05836   0.00000   0.00000
  59        2S         -0.12110  -0.00687   0.04283   0.00000   0.00000
  60        3PX        -0.00947   0.00259  -0.00005   0.00000   0.00000
  61        3PY         0.00252   0.00791  -0.00803   0.00000   0.00000
  62        3PZ         0.00000   0.00000   0.00000  -0.00007   0.01342
  63 4   O  1S         -0.00694   0.01823   0.02887   0.00000   0.00000
  64        2S          0.01910  -0.04696  -0.07093   0.00000   0.00000
  65        2PX        -0.04012   0.23561   0.20633   0.00000   0.00000
  66        2PY        -0.00674  -0.12786  -0.21163   0.00000   0.00000
  67        2PZ         0.00000   0.00000   0.00000   0.38862   0.01937
  68        3S          0.02271  -0.06147  -0.11297   0.00000   0.00000
  69        3PX        -0.03222   0.15975   0.15174   0.00000   0.00000
  70        3PY        -0.00213  -0.07892  -0.13731   0.00000   0.00000
  71        3PZ         0.00000   0.00000   0.00000   0.27222   0.01117
  72        4D 0        0.00177  -0.00531  -0.00726   0.00000   0.00000
  73        4D+1        0.00000   0.00000   0.00000   0.00959   0.00034
  74        4D-1        0.00000   0.00000   0.00000  -0.01220   0.00124
  75        4D+2       -0.00058   0.00433  -0.00239   0.00000   0.00000
  76        4D-2        0.00295  -0.01123  -0.00823   0.00000   0.00000
  77 5   H  1S          0.00864   0.00996   0.05836   0.00000   0.00000
  78        2S          0.00808   0.00687   0.04283   0.00000   0.00000
  79        3PX        -0.00197   0.00791   0.00803   0.00000   0.00000
  80        3PY         0.00293  -0.00259  -0.00005   0.00000   0.00000
  81        3PZ         0.00000   0.00000   0.00000   0.01342   0.00007
  82 6   O  1S          0.04691  -0.01823   0.02887   0.00000   0.00000
  83        2S         -0.10334   0.04696  -0.07093   0.00000   0.00000
  84        2PX         0.33350  -0.12786   0.21163   0.00000   0.00000
  85        2PY        -0.16687  -0.23561   0.20633   0.00000   0.00000
  86        2PZ         0.00000   0.00000   0.00000   0.01937  -0.38862
  87        3S         -0.18853   0.06147  -0.11297   0.00000   0.00000
  88        3PX         0.19074  -0.07892   0.13731   0.00000   0.00000
  89        3PY        -0.10163  -0.15975   0.15174   0.00000   0.00000
  90        3PZ         0.00000   0.00000   0.00000   0.01117  -0.27222
  91        4D 0       -0.00484   0.00531  -0.00726   0.00000   0.00000
  92        4D+1        0.00000   0.00000   0.00000  -0.00124  -0.01220
  93        4D-1        0.00000   0.00000   0.00000   0.00034  -0.00959
  94        4D+2        0.01551   0.00433   0.00239   0.00000   0.00000
  95        4D-2       -0.00133  -0.01123   0.00823   0.00000   0.00000
  96 7   H  1S          0.18847  -0.00996   0.05836   0.00000   0.00000
  97        2S          0.12110  -0.00687   0.04283   0.00000   0.00000
  98        3PX        -0.00947  -0.00259   0.00005   0.00000   0.00000
  99        3PY         0.00252  -0.00791   0.00803   0.00000   0.00000
 100        3PZ         0.00000   0.00000   0.00000   0.00007  -0.01342
 101 8   O  1S          0.00694   0.01823   0.02887   0.00000   0.00000
 102        2S         -0.01910  -0.04696  -0.07093   0.00000   0.00000
 103        2PX        -0.04012  -0.23561  -0.20633   0.00000   0.00000
 104        2PY        -0.00674   0.12786   0.21163   0.00000   0.00000
 105        2PZ         0.00000   0.00000   0.00000  -0.38862  -0.01937
 106        3S         -0.02271  -0.06147  -0.11297   0.00000   0.00000
 107        3PX        -0.03222  -0.15975  -0.15174   0.00000   0.00000
 108        3PY        -0.00213   0.07892   0.13731   0.00000   0.00000
 109        3PZ         0.00000   0.00000   0.00000  -0.27222  -0.01117
 110        4D 0       -0.00177  -0.00531  -0.00726   0.00000   0.00000
 111        4D+1        0.00000   0.00000   0.00000   0.00959   0.00034
 112        4D-1        0.00000   0.00000   0.00000  -0.01220   0.00124
 113        4D+2        0.00058   0.00433  -0.00239   0.00000   0.00000
 114        4D-2       -0.00295  -0.01123  -0.00823   0.00000   0.00000
 115 9   H  1S         -0.00864   0.00996   0.05836   0.00000   0.00000
 116        2S         -0.00808   0.00687   0.04283   0.00000   0.00000
 117        3PX        -0.00197  -0.00791  -0.00803   0.00000   0.00000
 118        3PY         0.00293   0.00259   0.00005   0.00000   0.00000
 119        3PZ         0.00000   0.00000   0.00000  -0.01342  -0.00007
                          21        22        23        24        25
                           O         O         O         O         V
     Eigenvalues --    -0.32993  -0.32009  -0.32009  -0.30202  -0.15574
   1 1   Ti 1S          0.00000   0.00000   0.00000   0.00000  -0.07302
   2        2S          0.00000   0.00000   0.00000   0.00000  -0.18050
   3        3S          0.00000   0.00000   0.00000   0.00000  -0.12859
   4        4S          0.00000   0.00000   0.00000   0.00000   0.50201
   5        5S          0.00000   0.00000   0.00000   0.00000  -0.01700
   6        6S          0.00000   0.00000   0.00000   0.00000   0.02137
   7        7PX         0.00000   0.02115   0.00152   0.00000   0.00000
   8        7PY         0.00000  -0.00152   0.02115   0.00000   0.00000
   9        7PZ        -0.01365   0.00000   0.00000   0.00000   0.00000
  10        8PX         0.00000   0.15803   0.01140   0.00000   0.00000
  11        8PY         0.00000  -0.01140   0.15803   0.00000   0.00000
  12        8PZ        -0.10189   0.00000   0.00000   0.00000   0.00000
  13        9PX         0.00000   0.03564  -0.00138   0.00000   0.00000
  14        9PY         0.00000   0.00138   0.03564   0.00000   0.00000
  15        9PZ        -0.01334   0.00000   0.00000   0.00000   0.00000
  16       10PX         0.00000  -0.10402   0.04116   0.00000   0.00000
  17       10PY         0.00000  -0.04116  -0.10402   0.00000   0.00000
  18       10PZ         0.18778   0.00000   0.00000   0.00000   0.00000
  19       11PX         0.00000   0.07384   0.01277   0.00000   0.00000
  20       11PY         0.00000  -0.01277   0.07384   0.00000   0.00000
  21       11PZ         0.01278   0.00000   0.00000   0.00000   0.00000
  22       12D 0        0.00000   0.00000   0.00000   0.00000   0.75363
  23       12D+1        0.00000   0.00000   0.00000   0.00000   0.00000
  24       12D-1        0.00000   0.00000   0.00000   0.00000   0.00000
  25       12D+2        0.00000   0.00000   0.00000   0.00000   0.00000
  26       12D-2        0.00000   0.00000   0.00000   0.00000   0.00000
  27       13D 0        0.00000   0.00000   0.00000   0.00000   0.24063
  28       13D+1        0.00000   0.00000   0.00000   0.00000   0.00000
  29       13D-1        0.00000   0.00000   0.00000   0.00000   0.00000
  30       13D+2        0.00000   0.00000   0.00000   0.00000   0.00000
  31       13D-2        0.00000   0.00000   0.00000   0.00000   0.00000
  32       14D 0        0.00000   0.00000   0.00000   0.00000   0.05182
  33       14D+1        0.00000   0.00000   0.00000   0.00000   0.00000
  34       14D-1        0.00000   0.00000   0.00000   0.00000   0.00000
  35       14D+2        0.00000   0.00000   0.00000   0.00000   0.00000
[...]
  91        4D 0        0.00085
  92        4D+1        0.00000   0.00070
  93        4D-1        0.00000   0.00000   0.00056
  94        4D+2        0.00000   0.00000   0.00000   0.00032
  95        4D-2        0.00000   0.00000   0.00000   0.00000   0.00041
  96 7   H  1S          0.00043   0.00028   0.00033  -0.00011   0.00225
  97        2S          0.00004   0.00003   0.00005  -0.00002   0.00020
  98        3PX        -0.00001   0.00000   0.00003   0.00010   0.00003
  99        3PY         0.00002   0.00005  -0.00001   0.00004   0.00005
 100        3PZ         0.00008   0.00008   0.00000   0.00000   0.00001
 101 8   O  1S          0.00000   0.00000   0.00000   0.00000   0.00000
 102        2S          0.00000   0.00000   0.00000   0.00000   0.00000
 103        2PX         0.00000   0.00000   0.00000   0.00000   0.00000
 104        2PY         0.00000   0.00000   0.00000   0.00000   0.00000
 105        2PZ         0.00000   0.00000   0.00000   0.00000   0.00000
 106        3S          0.00000   0.00000   0.00000   0.00000   0.00000
 107        3PX         0.00000   0.00000   0.00000   0.00000   0.00000
 108        3PY         0.00001   0.00000   0.00000   0.00000   0.00001
 109        3PZ         0.00000   0.00001   0.00000   0.00000   0.00000
 110        4D 0        0.00000   0.00000   0.00000   0.00000   0.00000
 111        4D+1        0.00000   0.00000   0.00000   0.00000   0.00000
 112        4D-1        0.00000   0.00000   0.00000   0.00000   0.00000
 113        4D+2        0.00000   0.00000   0.00000   0.00000   0.00000
 114        4D-2        0.00000   0.00000   0.00000   0.00000   0.00000
 115 9   H  1S          0.00000   0.00000   0.00000   0.00000   0.00000
 116        2S          0.00000   0.00000   0.00000   0.00000   0.00000
 117        3PX         0.00000   0.00000   0.00000   0.00000   0.00000
 118        3PY         0.00000   0.00000   0.00000   0.00000   0.00000
 119        3PZ         0.00000   0.00000   0.00000   0.00000   0.00000
                          96        97        98        99       100
  96 7   H  1S          0.20530
  97        2S          0.06147   0.05536
  98        3PX         0.00000   0.00000   0.00123
  99        3PY         0.00000   0.00000   0.00000   0.00142
 100        3PZ         0.00000   0.00000   0.00000   0.00000   0.00084
 101 8   O  1S          0.00000   0.00000   0.00000   0.00000   0.00000
 102        2S          0.00000   0.00000   0.00000   0.00000   0.00000
 103        2PX         0.00000   0.00003   0.00000   0.00000   0.00000
 104        2PY         0.00000  -0.00017   0.00000   0.00000   0.00000
 105        2PZ         0.00000  -0.00004   0.00000   0.00000   0.00000
 106        3S          0.00000   0.00000   0.00000   0.00000   0.00000
 107        3PX         0.00001   0.00027   0.00000   0.00000   0.00000
 108        3PY        -0.00005  -0.00149   0.00000   0.00000   0.00000
 109        3PZ        -0.00001  -0.00031   0.00000   0.00000   0.00000
 110        4D 0        0.00000   0.00000   0.00000   0.00000   0.00000
 111        4D+1        0.00000   0.00000   0.00000   0.00000   0.00000
 112        4D-1        0.00000   0.00000   0.00000   0.00000   0.00000
 113        4D+2        0.00000   0.00000   0.00000   0.00000   0.00000
 114        4D-2        0.00000   0.00000   0.00000   0.00000   0.00000
 115 9   H  1S          0.00000   0.00000   0.00000   0.00000   0.00000
 116        2S          0.00000   0.00002   0.00000   0.00000   0.00000
 117        3PX         0.00000   0.00000   0.00000   0.00000   0.00000
 118        3PY         0.00000   0.00000   0.00000   0.00000   0.00000
 119        3PZ         0.00000   0.00000   0.00000   0.00000   0.00000
                         101       102       103       104       105
 101 8   O  1S          2.08331
 102        2S         -0.03935   0.49645
 103        2PX         0.00000   0.00000   0.62110
 104        2PY         0.00000   0.00000   0.00000   0.66919
 105        2PZ         0.00000   0.00000   0.00000   0.00000   0.72460
 106        3S         -0.04594   0.41157   0.00000   0.00000   0.00000
 107        3PX         0.00000   0.00000   0.19225   0.00000   0.00000
 108        3PY         0.00000   0.00000   0.00000   0.22332   0.00000
 109        3PZ         0.00000   0.00000   0.00000   0.00000   0.25866
 110        4D 0        0.00000   0.00000   0.00000   0.00000   0.00000
 111        4D+1        0.00000   0.00000   0.00000   0.00000   0.00000
 112        4D-1        0.00000   0.00000   0.00000   0.00000   0.00000
 113        4D+2        0.00000   0.00000   0.00000   0.00000   0.00000
 114        4D-2        0.00000   0.00000   0.00000   0.00000   0.00000
 115 9   H  1S         -0.00156   0.02283   0.05393   0.03458   0.00115
 116        2S          0.00080  -0.00893   0.01536   0.00958   0.00036
 117        3PX        -0.00042   0.00362   0.00056   0.00580   0.00020
 118        3PY        -0.00029   0.00261   0.00557  -0.00041   0.00017
 119        3PZ        -0.00001   0.00015   0.00013   0.00013   0.00320
                         106       107       108       109       110
 106        3S          0.61108
 107        3PX         0.00000   0.24426
 108        3PY         0.00000   0.00000   0.30129
 109        3PZ         0.00000   0.00000   0.00000   0.36841
 110        4D 0        0.00000   0.00000   0.00000   0.00000   0.00083
 111        4D+1        0.00000   0.00000   0.00000   0.00000   0.00000
 112        4D-1        0.00000   0.00000   0.00000   0.00000   0.00000
 113        4D+2        0.00000   0.00000   0.00000   0.00000   0.00000
 114        4D-2        0.00000   0.00000   0.00000   0.00000   0.00000
 115 9   H  1S          0.01776   0.05567   0.03796   0.00175   0.00048
 116        2S         -0.03913   0.02727   0.01751   0.00083   0.00004
 117        3PX         0.00234   0.00004   0.00271   0.00011   0.00002
 118        3PY         0.00181   0.00249   0.00083   0.00010  -0.00001
 119        3PZ         0.00014   0.00005   0.00006   0.00458   0.00007
                         111       112       113       114       115
 111        4D+1        0.00054
 112        4D-1        0.00000   0.00070
 113        4D+2        0.00000   0.00000   0.00034
 114        4D-2        0.00000   0.00000   0.00000   0.00043
 115 9   H  1S          0.00028   0.00024  -0.00012   0.00230   0.20530
 116        2S          0.00004   0.00002  -0.00002   0.00020   0.06147
 117        3PX        -0.00001   0.00004   0.00004   0.00005   0.00000
 118        3PY         0.00002   0.00000   0.00010   0.00004   0.00000
 119        3PZ         0.00000   0.00009   0.00000   0.00001   0.00000
                         116       117       118       119
 116        2S          0.05534
 117        3PX         0.00000   0.00141
 118        3PY         0.00000   0.00000   0.00123
 119        3PZ         0.00000   0.00000   0.00000   0.00084
     Gross orbital populations:
                           1
   1 1   Ti 1S         -0.31017
   2        2S          1.35656
   3        3S          0.97047
   4        4S          0.15053
   5        5S          0.00309
   6        6S         -0.00180
   7        7PX        -0.07537
   8        7PY        -0.07537
   9        7PZ        -0.07505
  10        8PX         1.42010
  11        8PY         1.42017
  12        8PZ         1.41613
  13        9PX         0.67491
  14        9PY         0.67488
  15        9PZ         0.67733
  16       10PX         0.10097
  17       10PY         0.10095
  18       10PZ         0.07715
  19       11PX         0.01207
  20       11PY         0.01209
  21       11PZ         0.02147
  22       12D 0        0.19086
  23       12D+1        0.31132
  24       12D-1        0.31099
  25       12D+2        0.35050
  26       12D-2        0.21276
  27       13D 0        0.14136
  28       13D+1        0.08232
  29       13D-1        0.08248
  30       13D+2        0.11966
  31       13D-2        0.15792
  32       14D 0        0.04444
  33       14D+1        0.03224
  34       14D-1        0.03236
  35       14D+2        0.02451
  36       14D-2        0.04513
  37       15F 0        0.00864
  38       15F+1        0.01145
  39       15F-1        0.01144
  40       15F+2        0.01931
  41       15F-2        0.01394
  42       15F+3        0.01008
  43       15F-3        0.01008
  44 2   O  1S          1.99698
  45        2S          0.89635
  46        2PX         0.96542
  47        2PY         0.91712
  48        2PZ         1.02205
  49        3S          0.96788
  50        3PX         0.64226
  51        3PY         0.54485
  52        3PZ         0.69364
  53        4D 0        0.00252
  54        4D+1        0.00181
  55        4D-1        0.00179
  56        4D+2        0.00054
  57        4D-2        0.00346
  58 3   H  1S          0.48572
  59        2S          0.12298
  60        3PX         0.01439
  61        3PY         0.01655
  62        3PZ         0.01002
  63 4   O  1S          1.99698
  64        2S          0.89641
  65        2PX         0.91663
  66        2PY         0.96647
  67        2PZ         1.02141
  68        3S          0.96791
  69        3PX         0.54465
  70        3PY         0.64374
  71        3PZ         0.69210
  72        4D 0        0.00251
  73        4D+1        0.00191
  74        4D-1        0.00187
  75        4D+2        0.00051
  76        4D-2        0.00334
  77 5   H  1S          0.48571
  78        2S          0.12302
  79        3PX         0.01660
  80        3PY         0.01430
  81        3PZ         0.01005
  82 6   O  1S          1.99698
  83        2S          0.89634
  84        2PX         0.96609
  85        2PY         0.91628
  86        2PZ         1.02224
  87        3S          0.96787
  88        3PX         0.64327
  89        3PY         0.54603
  90        3PZ         0.69149
  91        4D 0        0.00261
  92        4D+1        0.00181
  93        4D-1        0.00178
  94        4D+2        0.00050
  95        4D-2        0.00342
  96 7   H  1S          0.48571
  97        2S          0.12300
  98        3PX         0.01433
  99        3PY         0.01669
 100        3PZ         0.00993
 101 8   O  1S          1.99698
 102        2S          0.89636
 103        2PX         0.91634
 104        2PY         0.96578
 105        2PZ         1.02249
 106        3S          0.96784
 107        3PX         0.54561
 108        3PY         0.64261
 109        3PZ         0.69243
 110        4D 0        0.00262
 111        4D+1        0.00168
 112        4D-1        0.00176
 113        4D+2        0.00053
 114        4D-2        0.00352
 115 9   H  1S          0.48572
 116        2S          0.12302
 117        3PX         0.01668
 118        3PY         0.01437
 119        3PZ         0.00991
          Condensed to atoms (all electrons):
 Mulliken atomic charges:
              1
     1  Ti   1.225112
     2  O   -0.656678
     3  H    0.350342
     4  O   -0.656456
     5  H    0.350316
     6  O   -0.656713
     7  H    0.350339
     8  O   -0.656573
     9  H    0.350310
 Sum of Mulliken atomic charges =   0.00000
 Mulliken charges with hydrogens summed into heavy atoms:
              1
     1  Ti   1.225112
     2  O   -0.306335
     4  O   -0.306140
     6  O   -0.306373
     8  O   -0.306263
 Sum of Mulliken charges with hydrogens summed into heavy atoms =   0.00000
 Electronic spatial extent (au):  <R**2>=            540.7819
 Charge=              0.0000 electrons
 Dipole moment (field-independent basis, Debye):
    X=             -0.0011    Y=              0.0002    Z=             -0.0039  Tot=              0.0041
 Orbital energies and kinetic energies (alpha):
                                 1                 2
   1         O               -19.135324         29.119825
   2         O               -19.135302         29.120673
   3         O               -19.135285         29.120750
   4         O               -19.135271         29.120756
   5         O                -2.500222          1.505177
   6         O                -1.535954          2.407865
   7         O                -1.533168          2.405322
   8         O                -1.533146          2.405298
   9         O                -0.979158          2.688203
  10         O                -0.967727          2.781489
  11         O                -0.967177          2.785991
  12         O                -0.967141          2.785945
  13         O                -0.492806          1.982732
  14         O                -0.488912          2.214585
  15         O                -0.488900          2.214575
  16         O                -0.483880          2.159758
  17         O                -0.367256          2.375775
  18         O                -0.359123          2.178547
  19         O                -0.352751          2.110926
  20         O                -0.340341          2.280443
  21         O                -0.340275          2.280901
  22         O                -0.315695          2.328318
  23         O                -0.315595          2.328485
  24         O                -0.314104          2.342126
  25         V                -0.047136          3.892836
  26         V                -0.041699          3.990343
  27         V                -0.015058          0.392625
  28         V                -0.010697          3.369398
  29         V                -0.010641          3.369467
  30         V                 0.007841          3.755837
  31         V                 0.020543          0.755001
  32         V                 0.020625          0.757636
  33         V                 0.040867          0.454378
  34         V                 0.043588          0.384462
  35         V                 0.088392          0.776118
  36         V                 0.128717          0.552924
  37         V                 0.136890          0.605035
  38         V                 0.136934          0.604489
  39         V                 0.143388          0.564236
  40         V                 0.172299          1.119288
  41         V                 0.172365          1.118509
  42         V                 0.201667          1.232985
  43         V                 0.218652          1.096346
  44         V                 0.242347          1.335377
  45         V                 0.249819          1.430940
  46         V                 0.249881          1.429860
  47         V                 0.291483          1.085194
  48         V                 0.511745          2.007141
  49         V                 0.523499          1.931364
  50         V                 0.523588          1.932602
  51         V                 0.569453          2.591499
  52         V                 0.576949          2.503288
  53         V                 0.873808          2.558088
  54         V                 0.873857          2.558560
  55         V                 0.879153          2.472895
  56         V                 0.881437          2.655032
  57         V                 0.934159          3.333497
  58         V                 0.955263          3.419692
  59         V                 0.955375          3.419811
  60         V                 1.007538          3.320104
  61         V                 1.015340          3.423295
  62         V                 1.030892          3.499612
  63         V                 1.031174          3.499874
  64         V                 1.110722          3.485454
  65         V                 1.137615          3.052493
  66         V                 1.138040          3.051327
  67         V                 1.144765          2.781917
  68         V                 1.166025          3.208151
  69         V                 1.216694          3.002738
  70         V                 1.216814          3.001455
  71         V                 1.250465          2.893281
  72         V                 1.322918          3.226392
  73         V                 1.384732          3.012947
  74         V                 1.385238          3.014128
  75         V                 1.446555          2.603199
  76         V                 1.459211          3.283256
  77         V                 1.499214          3.054610
  78         V                 1.499571          3.055761
  79         V                 1.598853          3.106349
  80         V                 1.616604          3.064618
  81         V                 1.616744          3.063869
  82         V                 1.631791          3.084294
  83         V                 1.655896          2.761563
  84         V                 1.656457          2.761637
  85         V                 1.685687          2.714503
  86         V                 1.763191          2.893469
  87         V                 1.806151          3.878451
  88         V                 1.914677          3.224100
  89         V                 1.950464          3.160894
  90         V                 1.950720          3.161116
  91         V                 2.020737          3.404155
  92         V                 2.115109          3.220472
  93         V                 2.132374          3.292952
  94         V                 2.185486          3.337163
  95         V                 2.185826          3.337340
  96         V                 2.362615          3.710138
  97         V                 2.401546          3.984123
  98         V                 2.401803          3.984400
  99         V                 2.428537          3.944953
 100         V                 2.456411          3.812265
 101         V                 2.522401          4.075542
 102         V                 2.522690          4.075020
 103         V                 2.546094          3.769161
 104         V                 2.650840          3.625661
 105         V                 2.651214          3.626324
 106         V                 2.684218          3.715090
 107         V                 2.689915          3.671748
 108         V                 2.824895          4.290157
 109         V                 2.835441          4.161194
 110         V                 2.835551          4.161935
 111         V                 3.024683          4.598342
 112         V                 3.476899          5.522472
 113         V                 3.493783          5.551101
 114         V                 3.493971          5.551339
 115         V                 3.501968          5.561074
 116         V                24.583596         22.796060
 117         V                24.583848         22.796278
 118         V                24.592221         22.803310
 119         V                35.572167         11.870001
 Total kinetic energy from orbitals= 3.260889301524D+02

 Test job not archived.
 1\1\GINC-TITAN13\FOpt\RB3PW91\GenECP\H4O4Ti1\OHNISHI\26-Oct-2016\0\\#T
  B3PW91/GenECP SCFCon=7 SCFCyc=250 GFInput GFOldPrint Opt=(MaxCyc=60,C
 alcFC) NoSym Integral=(Grid=UltraFine) Pop=Regular Pseudo=Read IOp(1/3
 3=0,2/11=1,3/27=8,6/7=3)\\TiO2 1-5b\\0,1\Ti,0.0002055688,0.0001779665,
 -0.0004546618\O,-0.1453974623,1.4735315154,-1.0264299581\H,-0.74394551
 85,2.2134184835,-0.8853798686\O,-1.4630371708,-0.1806681927,1.03414033
 7\H,-2.2055560744,-0.7720040568,0.8771429253\O,0.1721071768,-1.4282545
 958,-1.084263601\H,0.7658580593,-2.1749042064,-0.9594263473\O,1.436903
 4001,0.1355869194,1.0773290444\H,2.1828620212,0.7331161671,0.967342130
 1\\Version=AM64L-G09RevC.01\HF=-361.7657411\RMSD=8.494e-08\RMSF=4.514e
 -05\Dipole=-0.0004418,0.000088,-0.0015446\Quadrupole=3.8908641,3.86056
 76,-7.7514317,-0.0112538,0.1587481,0.2523148\PG=C01 [X(H4O4Ti1)]\\@


 BETTER TO HUNT IN FIELDS, FOR HEALTH UNBOUGHT
 THAN FEE THE DOCTOR FOR A NAUSEOUS DRAUGHT.
 THE WISE, FOR CURE, ON EXERCISE DEPEND;
 GOD NEVER MADE HIS WORK FOR MAN TO MEND.
     -- JOHN DRYDEN (1631-1700)
 Job cpu time:  0 days  0 hours  6 minutes 32.5 seconds.
 File lengths (MBytes):  RWF=     21 Int=      0 D2E=      0 Chk=      2 Scr=      1
 Normal termination of Gaussian 09 at Wed Oct 26 17:42:06 2016.
real 412.52
user 363.61
sys 29.00
