 Running on titan10
 Entering Gaussian System, Link 0=g09
 Initial command:
 /opt/qcapps/g09/l1.exe /work/ohnishi/1477470244/Gau-7444.inp -scrdir=/work/ohnishi/1477470244/
 Entering Link 1 = /opt/qcapps/g09/l1.exe PID=      7445.
  
 Copyright (c) 1988,1990,1992,1993,1995,1998,2003,2009,2011,
            Gaussian, Inc.  All Rights Reserved.
  
 This is part of the Gaussian(R) 09 program.  It is based on
 the Gaussian(R) 03 system (copyright 2003, Gaussian, Inc.),
 the Gaussian(R) 98 system (copyright 1998, Gaussian, Inc.),
 the Gaussian(R) 94 system (copyright 1995, Gaussian, Inc.),
 the Gaussian 92(TM) system (copyright 1992, Gaussian, Inc.),
 the Gaussian 90(TM) system (copyright 1990, Gaussian, Inc.),
 the Gaussian 88(TM) system (copyright 1988, Gaussian, Inc.),
 the Gaussian 86(TM) system (copyright 1986, Carnegie Mellon
 University), and the Gaussian 82(TM) system (copyright 1983,
 Carnegie Mellon University). Gaussian is a federally registered
 trademark of Gaussian, Inc.
  
 This software contains proprietary and confidential information,
 including trade secrets, belonging to Gaussian, Inc.
  
 This software is provided under written license and may be
 used, copied, transmitted, or stored only in accord with that
 written license.
  
 The following legend is applicable only to US Government
 contracts under FAR:
  
                    RESTRICTED RIGHTS LEGEND
  
 Use, reproduction and disclosure by the US Government is
 subject to restrictions as set forth in subparagraphs (a)
 and (c) of the Commercial Computer Software - Restricted
 Rights clause in FAR 52.227-19.
  
 Gaussian, Inc.
 340 Quinnipiac St., Bldg. 40, Wallingford CT 06492
  
  
 ---------------------------------------------------------------
 Warning -- This program may not be used in any manner that
 competes with the business of Gaussian, Inc. or will provide
 assistance to any competitor of Gaussian, Inc.  The licensee
 of this program is prohibited from giving any competitor of
 Gaussian, Inc. access to this program.  By using this program,
 the user acknowledges that Gaussian, Inc. is engaged in the
 business of creating and licensing software in the field of
 computational chemistry and represents and warrants to the
 licensee that it is not a competitor of Gaussian, Inc. and that
 it will not use this program in any manner prohibited above.
 ---------------------------------------------------------------
  

 Cite this work as:
 Gaussian 09, Revision C.01,
 M. J. Frisch, G. W. Trucks, H. B. Schlegel, G. E. Scuseria, 
 M. A. Robb, J. R. Cheeseman, G. Scalmani, V. Barone, B. Mennucci, 
 G. A. Petersson, H. Nakatsuji, M. Caricato, X. Li, H. P. Hratchian, 
 A. F. Izmaylov, J. Bloino, G. Zheng, J. L. Sonnenberg, M. Hada, 
 M. Ehara, K. Toyota, R. Fukuda, J. Hasegawa, M. Ishida, T. Nakajima, 
 Y. Honda, O. Kitao, H. Nakai, T. Vreven, J. A. Montgomery, Jr., 
 J. E. Peralta, F. Ogliaro, M. Bearpark, J. J. Heyd, E. Brothers, 
 K. N. Kudin, V. N. Staroverov, T. Keith, R. Kobayashi, J. Normand, 
 K. Raghavachari, A. Rendell, J. C. Burant, S. S. Iyengar, J. Tomasi, 
 M. Cossi, N. Rega, J. M. Millam, M. Klene, J. E. Knox, J. B. Cross, 
 V. Bakken, C. Adamo, J. Jaramillo, R. Gomperts, R. E. Stratmann, 
 O. Yazyev, A. J. Austin, R. Cammi, C. Pomelli, J. W. Ochterski, 
 R. L. Martin, K. Morokuma, V. G. Zakrzewski, G. A. Voth, 
 P. Salvador, J. J. Dannenberg, S. Dapprich, A. D. Daniels, 
 O. Farkas, J. B. Foresman, J. V. Ortiz, J. Cioslowski, 
 and D. J. Fox, Gaussian, Inc., Wallingford CT, 2010.
 
 ******************************************
 Gaussian 09:  AM64L-G09RevC.01 23-Sep-2011
                26-Oct-2016 
 ******************************************
 %NprocShared=8
 Will use up to    8 processors via shared memory.
 %Mem=25712MB
 %chk=Ti1_TS23_fq.chk
 ----------------------------------------------------------------------
 #P B3PW91/GenECP SCFCon=7 SCFCyc=250 GFInput GFOldPrint Pseudo=Read Fr
 eq Integral=(Grid=UltraFine) Pop=Regular IOp(1/33=0,2/11=1,3/27=8,6/7=
 3)
 ----------------------------------------------------------------------
 1/10=4,30=1,38=1/1,3;
 2/11=1,12=2,17=6,18=5,40=1/2;
 3/5=7,11=2,16=1,17=8,24=11,25=1,27=8,30=1,71=2,74=-6,75=-5/1,2,3;
 4//1;
 5/5=2,6=7,7=250,38=5,98=1/2;
 8/6=4,10=90,11=11/1;
 11/6=1,8=1,9=11,15=111,16=1/1,2,10;
 10/6=1/2;
 6/7=3,18=1,28=1/1;
 7/8=1,10=1,25=1/1,2,3,16;
 1/10=4,30=1/3;
 99//99;
 Leave Link    1 at Wed Oct 26 17:24:04 2016, MaxMem= 3370123264 cpu:       1.1
 (Enter /opt/qcapps/g09/l101.exe)
 ---------
 Frequency
 ---------
 Charge =  0 Multiplicity = 1
 Symbolic Z-Matrix:
 Ti                    0.56854   0.2336   -0.4175 
 O                     0.33492  -1.15937   0.54444 
 O                     1.4384    1.39563   0.30753 
 O                    -1.45792   0.1652   -0.25038 
 H                    -1.95176   0.73858   0.34679 
 H                    -0.90773  -0.69954   0.31372 
 
 NAtoms=      6 NQM=        0 NQMF=       0 NMMI=      6 NMMIF=      0
                NMic=       0 NMicF=      0.
                    Isotopes and Nuclear Properties:
 (Nuclear quadrupole moments (NQMom) in fm**2, nuclear magnetic moments (NMagM)
  in nuclear magnetons)

  Atom         1           2           3           4           5           6
 IAtWgt=          48          16          16          16           1           1
 AtmWgt=  47.9479467  15.9949146  15.9949146  15.9949146   1.0078250   1.0078250
 NucSpn=           0           0           0           0           1           1
 AtZEff=   0.0000000   0.0000000   0.0000000   0.0000000   0.0000000   0.0000000
 NQMom=    0.0000000   0.0000000   0.0000000   0.0000000   0.0000000   0.0000000
 NMagM=    0.0000000   0.0000000   0.0000000   0.0000000   2.7928460   2.7928460
 Leave Link  101 at Wed Oct 26 17:24:04 2016, MaxMem= 3370123264 cpu:       0.8
 (Enter /opt/qcapps/g09/l103.exe)

 GradGradGradGradGradGradGradGradGradGradGradGradGradGradGradGradGradGrad
 Berny optimization.
 Initialization pass.
 Trust Radius=3.00D-01 FncErr=1.00D-07 GrdErr=1.00D-07
 Number of steps in this run=      2 maximum allowed number of steps=      2.
 GradGradGradGradGradGradGradGradGradGradGradGradGradGradGradGradGradGrad

 Leave Link  103 at Wed Oct 26 17:24:04 2016, MaxMem= 3370123264 cpu:       0.2
 (Enter /opt/qcapps/g09/l202.exe)
                          Input orientation:                          
 ---------------------------------------------------------------------
 Center     Atomic      Atomic             Coordinates (Angstroms)
 Number     Number       Type             X           Y           Z
 ---------------------------------------------------------------------
      1         22           0        0.568541    0.233602   -0.417504
      2          8           0        0.334919   -1.159371    0.544438
      3          8           0        1.438397    1.395634    0.307534
      4          8           0       -1.457922    0.165198   -0.250383
      5          1           0       -1.951762    0.738580    0.346792
      6          1           0       -0.907727   -0.699536    0.313716
 ---------------------------------------------------------------------
                    Distance matrix (angstroms):
                    1          2          3          4          5
     1  Ti   0.000000
     2  O    1.708884   0.000000
     3  O    1.622544   2.793177   0.000000
     4  O    2.034493   2.366538   3.195921   0.000000
     5  H    2.681619   2.978287   3.453468   0.963983   0.000000
     6  H    1.893356   1.344935   3.145485   1.169909   1.777437
                    6
     6  H    0.000000
 Stoichiometry    H2O3Ti
 Framework group  C1[X(H2O3Ti)]
 Deg. of freedom    12
 Full point group                 C1      NOp   1
 Largest Abelian subgroup         C1      NOp   1
 Largest concise Abelian subgroup C1      NOp   1
                         Standard orientation:                         
 ---------------------------------------------------------------------
 Center     Atomic      Atomic             Coordinates (Angstroms)
 Number     Number       Type             X           Y           Z
 ---------------------------------------------------------------------
      1         22           0       -0.300393   -0.004480   -0.357945
      2          8           0        0.520606    1.349481    0.284733
      3          8           0       -1.617416   -0.436694    0.485436
      4          8           0        1.532454   -0.778704    0.066800
      5          1           0        1.700012   -1.328176    0.840924
      6          1           0        1.423480    0.354081    0.338110
 ---------------------------------------------------------------------
 Rotational constants (GHZ):      9.0700838      4.8175648      3.6976858
 Leave Link  202 at Wed Oct 26 17:24:05 2016, MaxMem= 3370123264 cpu:       0.0
 (Enter /opt/qcapps/g09/l301.exe)
 General basis read from cards:  (5D, 7F)
 Centers:   1
 SDDAll
 ****
 Centers:   2  3  4  5  6
 6-31G(d,p)
 ****
 ======================================================================================================
                                       Pseudopotential Parameters
 ======================================================================================================
  Center     Atomic      Valence      Angular      Power
  Number     Number     Electrons     Momentum     of R      Exponent        Coefficient   SO-Coeffient
 ======================================================================================================
    1         22           12
                                      F and up 
                                                     2        1.0000000        0.00000000    0.00000000
                                      S - F
                                                     2       13.0100000      158.24159300    0.00000000
                                                     2        5.8620000       17.51182400    0.00000000
                                      P - F
                                                     2       12.4600000       95.23512700    0.00000000
                                                     2        5.2170000       10.04785600    0.00000000
                                      D - F
                                                     2       15.3500000      -17.56886100    0.00000000
                                                     2        4.9800000       -0.58725600    0.00000000
    2          8
                                   No pseudopotential on this center.
    3          8
                                   No pseudopotential on this center.
    4          8
                                   No pseudopotential on this center.
    5          1
                                   No pseudopotential on this center.
    6          1
                                   No pseudopotential on this center.
 ======================================================================================================
 Ernie: Thresh=  0.10000D-02 Tol=  0.10000D-05 Strict=F.
 AO basis set in the form of general basis input (Overlap normalization):
      1 0
 S   3 1.00       0.000000000000
      0.1078036500D+02  0.1783892477D+01
      0.9717013000D+01 -0.2000689535D+01
      0.4507755000D+01 -0.7563332022D+00
 S   1 1.00       0.000000000000
      0.1246708000D+01  0.1000000000D+01
 S   1 1.00       0.000000000000
      0.5087070000D+00  0.1000000000D+01
 S   1 1.00       0.000000000000
      0.7343800000D-01  0.1000000000D+01
 S   1 1.00       0.000000000000
      0.3004800000D-01  0.1000000000D+01
 S   1 1.00       0.000000000000
      0.1000000000D-01  0.1000000000D+01
 P   2 1.00       0.000000000000
      0.1756638100D+02  0.8860101480D-01
      0.7705844000D+01 -0.1070746179D+01
 P   2 1.00       0.000000000000
      0.3329138000D+01  0.2001088977D+00
      0.1308104000D+01  0.8379855716D+00
 P   1 1.00       0.000000000000
      0.4544820000D+00  0.1000000000D+01
 P   1 1.00       0.000000000000
      0.7177200000D-01  0.1000000000D+01
 P   1 1.00       0.000000000000
      0.2378400000D-01  0.1000000000D+01
 D   4 1.00       0.000000000000
      0.1951919400D+02  0.3581400317D-01
      0.5864613000D+01  0.1723730152D+00
      0.1928038000D+01  0.4251360376D+00
      0.6065630000D+00  0.6025950533D+00
 D   1 1.00       0.000000000000
      0.1639610000D+00  0.1000000000D+01
 D   1 1.00       0.000000000000
      0.5000000000D-01  0.1000000000D+01
 F   1 1.00       0.000000000000
      0.5000000000D+00  0.1000000000D+01
 ****
      2 0
 S   6 1.00       0.000000000000
      0.5484671660D+04  0.1831074430D-02
      0.8252349460D+03  0.1395017220D-01
      0.1880469580D+03  0.6844507810D-01
      0.5296450000D+02  0.2327143360D+00
      0.1689757040D+02  0.4701928980D+00
      0.5799635340D+01  0.3585208530D+00
 SP   3 1.00       0.000000000000
      0.1553961625D+02 -0.1107775495D+00  0.7087426823D-01
      0.3599933586D+01 -0.1480262627D+00  0.3397528391D+00
      0.1013761750D+01  0.1130767015D+01  0.7271585773D+00
 SP   1 1.00       0.000000000000
      0.2700058226D+00  0.1000000000D+01  0.1000000000D+01
 D   1 1.00       0.000000000000
      0.8000000000D+00  0.1000000000D+01
 ****
      3 0
 S   6 1.00       0.000000000000
      0.5484671660D+04  0.1831074430D-02
      0.8252349460D+03  0.1395017220D-01
      0.1880469580D+03  0.6844507810D-01
      0.5296450000D+02  0.2327143360D+00
      0.1689757040D+02  0.4701928980D+00
      0.5799635340D+01  0.3585208530D+00
 SP   3 1.00       0.000000000000
      0.1553961625D+02 -0.1107775495D+00  0.7087426823D-01
      0.3599933586D+01 -0.1480262627D+00  0.3397528391D+00
      0.1013761750D+01  0.1130767015D+01  0.7271585773D+00
 SP   1 1.00       0.000000000000
      0.2700058226D+00  0.1000000000D+01  0.1000000000D+01
 D   1 1.00       0.000000000000
      0.8000000000D+00  0.1000000000D+01
 ****
      4 0
 S   6 1.00       0.000000000000
      0.5484671660D+04  0.1831074430D-02
      0.8252349460D+03  0.1395017220D-01
      0.1880469580D+03  0.6844507810D-01
      0.5296450000D+02  0.2327143360D+00
      0.1689757040D+02  0.4701928980D+00
      0.5799635340D+01  0.3585208530D+00
 SP   3 1.00       0.000000000000
      0.1553961625D+02 -0.1107775495D+00  0.7087426823D-01
      0.3599933586D+01 -0.1480262627D+00  0.3397528391D+00
      0.1013761750D+01  0.1130767015D+01  0.7271585773D+00
 SP   1 1.00       0.000000000000
      0.2700058226D+00  0.1000000000D+01  0.1000000000D+01
 D   1 1.00       0.000000000000
      0.8000000000D+00  0.1000000000D+01
 ****
      5 0
 S   3 1.00       0.000000000000
      0.1873113696D+02  0.3349460434D-01
      0.2825394365D+01  0.2347269535D+00
      0.6401216923D+00  0.8137573261D+00
 S   1 1.00       0.000000000000
      0.1612777588D+00  0.1000000000D+01
 P   1 1.00       0.000000000000
      0.1100000000D+01  0.1000000000D+01
 ****
      6 0
 S   3 1.00       0.000000000000
      0.1873113696D+02  0.3349460434D-01
      0.2825394365D+01  0.2347269535D+00
      0.6401216923D+00  0.8137573261D+00
 S   1 1.00       0.000000000000
      0.1612777588D+00  0.1000000000D+01
 P   1 1.00       0.000000000000
      0.1100000000D+01  0.1000000000D+01
 ****

 ***********************************************************************************************************************************
 *             ATOMIC CENTER             *        ATOMIC ORBITAL       *                     GAUSSIAN FUNCTIONS                    *
 ***********************************************************************************************************************************
 *                                       * FUNCTION    SHELL    SCALE  *                                                           *
 *    ATOM   X-COORD  Y-COORD  Z-COORD   *  NUMBER     TYPE     FACTOR *  EXPONENT    S-COEF      P-COEF      D-COEF      F-COEF   *
 ***********************************************************************************************************************************
 *     Ti    -0.56766 -0.00847 -0.67642                                                                                            *
+                                                1   S           1.00                                                               
+                                                                      0.107804D+020.756404D+010.000000D+000.000000D+000.000000D+00 
 *                                                                     0.971701D+01-.784765D+010.000000D+000.000000D+000.000000D+00*
 *                                                                     0.450776D+01-.166761D+010.000000D+000.000000D+000.000000D+00*
 *                                               2   S           1.00                                                              *
+                                                                      0.124671D+010.840879D+000.000000D+000.000000D+000.000000D+00 
 *                                               3   S           1.00                                                              *
+                                                                      0.508707D+000.429300D+000.000000D+000.000000D+000.000000D+00 
 *                                               4   S           1.00                                                              *
+                                                                      0.734380D-010.100543D+000.000000D+000.000000D+000.000000D+00 
 *                                               5   S           1.00                                                              *
+                                                                      0.300480D-010.514365D-010.000000D+000.000000D+000.000000D+00 
 *                                               6   S           1.00                                                              *
+                                                                      0.100000D-010.225377D-010.000000D+000.000000D+000.000000D+00 
 *                                           7-  9   P           1.00                                                              *
+                                                                      0.175664D+020.000000D+000.454184D+010.000000D+000.000000D+00 
 *                                                                     0.770584D+010.000000D+00-.195953D+020.000000D+000.000000D+00*
 *                                          10- 12   P           1.00                                                              *
+                                                                      0.332914D+010.000000D+000.128269D+010.000000D+000.000000D+00 
 *                                                                     0.130810D+010.000000D+000.167101D+010.000000D+000.000000D+00*
 *                                          13- 15   P           1.00                                                              *
+                                                                      0.454482D+000.000000D+000.531907D+000.000000D+000.000000D+00 
 *                                          16- 18   P           1.00                                                              *
+                                                                      0.717720D-010.000000D+000.529522D-010.000000D+000.000000D+00 
 *                                          19- 21   P           1.00                                                              *
+                                                                      0.237840D-010.000000D+000.133136D-010.000000D+000.000000D+00 
 *                                          22- 26   D           1.00                                                              *
+                                                                      0.195192D+020.000000D+000.000000D+000.106849D+020.000000D+00 
 *                                                                     0.586461D+010.000000D+000.000000D+000.627043D+010.000000D+00*
 *                                                                     0.192804D+010.000000D+000.000000D+000.220744D+010.000000D+00*
 *                                                                     0.606563D+000.000000D+000.000000D+000.413493D+000.000000D+00*
 *                                          27- 31   D           1.00                                                              *
+                                                                      0.163961D+000.000000D+000.000000D+000.695353D-010.000000D+00 
 *                                          32- 36   D           1.00                                                              *
+                                                                      0.500000D-010.000000D+000.000000D+000.870176D-020.000000D+00 
 *                                          31- 43   F           1.00                                                              *
+                                                                      0.500000D+000.000000D+000.000000D+000.000000D+000.309483D+00 
 *---------------------------------------------------------------------------------------------------------------------------------*
 *     O      0.98380  2.55015  0.53807                                                                                            *
+                                               44   S           1.00                                                               
+                                                                      0.548467D+040.831724D+000.000000D+000.000000D+000.000000D+00 
 *                                                                     0.825235D+030.153082D+010.000000D+000.000000D+000.000000D+00*
 *                                                                     0.188047D+030.247715D+010.000000D+000.000000D+000.000000D+00*
 *                                                                     0.529645D+020.325628D+010.000000D+000.000000D+000.000000D+00*
 *                                                                     0.168976D+020.279289D+010.000000D+000.000000D+000.000000D+00*
 *                                                                     0.579964D+010.954938D+000.000000D+000.000000D+000.000000D+00*
 *                                          45- 48   SP          1.00                                                              *
+                                                                      0.155396D+02-.617934D+000.311694D+010.000000D+000.000000D+00 
 *                                                                     0.359993D+01-.275721D+000.240144D+010.000000D+000.000000D+00*
 *                                                                     0.101376D+010.814208D+000.105436D+010.000000D+000.000000D+00*
 *                                          49- 52   SP          1.00                                                              *
+                                                                      0.270006D+000.266956D+000.277432D+000.000000D+000.000000D+00 
 *                                          53- 57   D           1.00                                                              *
+                                                                      0.800000D+000.000000D+000.000000D+000.111382D+010.000000D+00 
 *---------------------------------------------------------------------------------------------------------------------------------*
 *     O     -3.05647 -0.82523  0.91734                                                                                            *
+                                               58   S           1.00                                                               
+                                                                      0.548467D+040.831724D+000.000000D+000.000000D+000.000000D+00 
 *                                                                     0.825235D+030.153082D+010.000000D+000.000000D+000.000000D+00*
 *                                                                     0.188047D+030.247715D+010.000000D+000.000000D+000.000000D+00*
 *                                                                     0.529645D+020.325628D+010.000000D+000.000000D+000.000000D+00*
 *                                                                     0.168976D+020.279289D+010.000000D+000.000000D+000.000000D+00*
 *                                                                     0.579964D+010.954938D+000.000000D+000.000000D+000.000000D+00*
 *                                          59- 62   SP          1.00                                                              *
+                                                                      0.155396D+02-.617934D+000.311694D+010.000000D+000.000000D+00 
 *                                                                     0.359993D+01-.275721D+000.240144D+010.000000D+000.000000D+00*
 *                                                                     0.101376D+010.814208D+000.105436D+010.000000D+000.000000D+00*
 *                                          63- 66   SP          1.00                                                              *
+                                                                      0.270006D+000.266956D+000.277432D+000.000000D+000.000000D+00 
 *                                          67- 71   D           1.00                                                              *
+                                                                      0.800000D+000.000000D+000.000000D+000.111382D+010.000000D+00 
 *---------------------------------------------------------------------------------------------------------------------------------*
 *     O      2.89592 -1.47154  0.12623                                                                                            *
+                                               72   S           1.00                                                               
+                                                                      0.548467D+040.831724D+000.000000D+000.000000D+000.000000D+00 
 *                                                                     0.825235D+030.153082D+010.000000D+000.000000D+000.000000D+00*
 *                                                                     0.188047D+030.247715D+010.000000D+000.000000D+000.000000D+00*
 *                                                                     0.529645D+020.325628D+010.000000D+000.000000D+000.000000D+00*
 *                                                                     0.168976D+020.279289D+010.000000D+000.000000D+000.000000D+00*
 *                                                                     0.579964D+010.954938D+000.000000D+000.000000D+000.000000D+00*
 *                                          73- 76   SP          1.00                                                              *
+                                                                      0.155396D+02-.617934D+000.311694D+010.000000D+000.000000D+00 
 *                                                                     0.359993D+01-.275721D+000.240144D+010.000000D+000.000000D+00*
 *                                                                     0.101376D+010.814208D+000.105436D+010.000000D+000.000000D+00*
 *                                          77- 80   SP          1.00                                                              *
+                                                                      0.270006D+000.266956D+000.277432D+000.000000D+000.000000D+00 
 *                                          81- 85   D           1.00                                                              *
+                                                                      0.800000D+000.000000D+000.000000D+000.111382D+010.000000D+00 
 *---------------------------------------------------------------------------------------------------------------------------------*
 *     H      3.21256 -2.50989  1.58912                                                                                            *
+                                               86   S           1.00                                                               
+                                                                      0.187311D+020.214935D+000.000000D+000.000000D+000.000000D+00 
 *                                                                     0.282539D+010.364571D+000.000000D+000.000000D+000.000000D+00*
 *                                                                     0.640122D+000.415051D+000.000000D+000.000000D+000.000000D+00*
 *                                              87   S           1.00                                                              *
+                                                                      0.161278D+000.181381D+000.000000D+000.000000D+000.000000D+00 
 *                                          88- 90   P           1.00                                                              *
+                                                                      0.110000D+010.000000D+000.160576D+010.000000D+000.000000D+00 
 *---------------------------------------------------------------------------------------------------------------------------------*
 *     H      2.68999  0.66912  0.63894                                                                                            *
+                                               91   S           1.00                                                               
+                                                                      0.187311D+020.214935D+000.000000D+000.000000D+000.000000D+00 
 *                                                                     0.282539D+010.364571D+000.000000D+000.000000D+000.000000D+00*
 *                                                                     0.640122D+000.415051D+000.000000D+000.000000D+000.000000D+00*
 *                                              92   S           1.00                                                              *
+                                                                      0.161278D+000.181381D+000.000000D+000.000000D+000.000000D+00 
 *                                          93- 95   P           1.00                                                              *
+                                                                      0.110000D+010.000000D+000.160576D+010.000000D+000.000000D+00 
 ***********************************************************************************************************************************
 There are    95 symmetry adapted basis functions of A   symmetry.
 Integral buffers will be    131072 words long.
 Raffenetti 2 integral format.
 Two-electron integral symmetry is turned on.
    95 basis functions,   173 primitive gaussians,   104 cartesian basis functions
    19 alpha electrons       19 beta electrons
       nuclear repulsion energy       144.2105818954 Hartrees.
 IExCor=  408 DFT=T Ex+Corr=B3PW91 ExCW=0 ScaHFX=  0.200000
 ScaDFX=  0.800000  0.720000  1.000000  0.810000 ScalE2=  1.000000  1.000000
 IRadAn=      5 IRanWt=     -1 IRanGd=            0 ICorTp=0
 NAtoms=    6 NActive=    6 NUniq=    6 SFac= 1.00D+00 NAtFMM=   60 NAOKFM=F Big=F
 Leave Link  301 at Wed Oct 26 17:24:05 2016, MaxMem= 3370123264 cpu:       0.6
 (Enter /opt/qcapps/g09/l302.exe)
 NPDir=0 NMtPBC=     1 NCelOv=     1 NCel=       1 NClECP=     1 NCelD=      1
         NCelK=      1 NCelE2=     1 NClLst=     1 CellRange=     0.0.
 One-electron integrals computed using PRISM.
   1 Symmetry operations used in ECPInt.
 ECPInt:  NShTT=     561 NPrTT=    2216 LenC2=     560 LenP2D=    1860.
 LDataN:  DoStor=T MaxTD1= 6 Len=  172
 NBasis=    95 RedAO= T  NBF=    95
 NBsUse=    95 1.00D-06 NBFU=    95
 Precomputing XC quadrature grid using
 IXCGrd= 2 IRadAn=           5 IRanWt=          -1 IRanGd=           0 AccXCQ= 0.00D+00.
 NRdTot=     520 NPtTot=      149344 NUsed=      153075 NTot=      153107
 NSgBfM=   104   104   104   104   104 NAtAll=     6     6.
 Leave Link  302 at Wed Oct 26 17:24:05 2016, MaxMem= 3370123264 cpu:       1.9
 (Enter /opt/qcapps/g09/l303.exe)
 DipDrv:  MaxL=1.
 Leave Link  303 at Wed Oct 26 17:24:05 2016, MaxMem= 3370123264 cpu:       0.3
 (Enter /opt/qcapps/g09/l401.exe)
 Harris functional with IExCor=  408 diagonalized for initial guess.
 ExpMin= 1.00D-02 ExpMax= 5.48D+03 ExpMxC= 8.25D+02 IAcc=3 IRadAn=         5 AccDes= 0.00D+00
 HarFok:  IExCor=  408 AccDes= 0.00D+00 IRadAn=         5 IDoV= 1
 ScaDFX=  1.000000  1.000000  1.000000  1.000000
 FoFCou: FMM=F IPFlag=           0 FMFlag=      100000 FMFlg1=           0
         NFxFlg=           0 DoJE=T BraDBF=F KetDBF=T FulRan=T
         Omega=  0.000000  0.000000  1.000000  0.000000  0.000000 ICntrl=     500 IOpCl=  0
         NMat0=    1 NMatS0=    1 NMatT0=    0 NMatD0=    1 NMtDS0=    0 NMtDT0=    0
         I1Cent=           4 NGrid=           0.
 Petite list used in FoFCou.
 Harris En= -285.488749364896    
 Initial guess orbital symmetries:
       Occupied  (A) (A) (A) (A) (A) (A) (A) (A) (A) (A) (A) (A)
                 (A) (A) (A) (A) (A) (A) (A)
       Virtual   (A) (A) (A) (A) (A) (A) (A) (A) (A) (A) (A) (A)
                 (A) (A) (A) (A) (A) (A) (A) (A) (A) (A) (A) (A)
                 (A) (A) (A) (A) (A) (A) (A) (A) (A) (A) (A) (A)
                 (A) (A) (A) (A) (A) (A) (A) (A) (A) (A) (A) (A)
                 (A) (A) (A) (A) (A) (A) (A) (A) (A) (A) (A) (A)
                 (A) (A) (A) (A) (A) (A) (A) (A) (A) (A) (A) (A)
                 (A) (A) (A) (A)
 The electronic state of the initial guess is 1-A.
 Leave Link  401 at Wed Oct 26 17:24:06 2016, MaxMem= 3370123264 cpu:       4.2
 (Enter /opt/qcapps/g09/l502.exe)
 Closed shell SCF:
 Requested convergence on RMS density matrix=1.00D-07 within 250 cycles.
 Requested convergence on MAX density matrix=1.00D-05.
 Requested convergence on             energy=1.00D-05.
 No special actions if energy rises.
 Using DIIS extrapolation, IDIIS=  1040.
 Integral symmetry usage will be decided dynamically.
       153008 words used for storage of precomputed grid.
 Keep R1 ints in memory in canonical form, NReq=17100468.
 IEnd=      251924 IEndB=      251924 NGot=  3370123264 MDV=  3355036703
 LenX=  3355036703 LenY=  3355025446
 Symmetry not used in FoFDir.
 MinBra= 0 MaxBra= 3 Meth= 1.
 IRaf=       0 NMat=   1 IRICut=       1 DoRegI=T DoRafI=F ISym2E= 0 JSym2E=0.

 Cycle   1  Pass 1  IDiag  1:
 E= -284.589921149321    
 DIIS: error= 5.45D-02 at cycle   1 NSaved=   1.
 NSaved= 1 IEnMin= 1 EnMin= -284.589921149321     IErMin= 1 ErrMin= 5.45D-02
 ErrMax= 5.45D-02 EMaxC= 1.00D-01 BMatC= 7.96D-01 BMatP= 7.96D-01
 IDIUse=3 WtCom= 4.55D-01 WtEn= 5.45D-01
 Coeff-Com:  0.100D+01
 Coeff-En:   0.100D+01
 Coeff:      0.100D+01
 Gap=    -0.305 Goal=   None    Shift=    0.000
 GapD=   -0.305 DampG=0.250 DampE=0.250 DampFc=0.1250 IDamp=-1.
 Damping current iteration by 1.25D-01
 RMSDP=3.01D-02 MaxDP=8.69D-01              OVMax= 8.67D-01

 Cycle   2  Pass 1  IDiag  1:
 E= -284.732120210610     Delta-E=       -0.142199061288 Rises=F Damp=T
 DIIS: error= 1.70D-02 at cycle   2 NSaved=   2.
 NSaved= 2 IEnMin= 2 EnMin= -284.732120210610     IErMin= 2 ErrMin= 1.70D-02
 ErrMax= 1.70D-02 EMaxC= 1.00D-01 BMatC= 1.12D-01 BMatP= 7.96D-01
 IDIUse=3 WtCom= 8.30D-01 WtEn= 1.70D-01
 Coeff-Com: -0.298D+00 0.130D+01
 Coeff-En:   0.307D+00 0.693D+00
 Coeff:     -0.195D+00 0.119D+01
 Gap=    -0.070 Goal=   None    Shift=    0.000
 RMSDP=5.91D-03 MaxDP=1.01D-01 DE=-1.42D-01 OVMax= 9.44D-01

 Cycle   3  Pass 1  IDiag  1:
 E= -284.991616502105     Delta-E=       -0.259496291496 Rises=F Damp=F
 DIIS: error= 2.87D-02 at cycle   3 NSaved=   3.
 NSaved= 3 IEnMin= 3 EnMin= -284.991616502105     IErMin= 2 ErrMin= 1.70D-02
 ErrMax= 2.87D-02 EMaxC= 1.00D-01 BMatC= 2.57D-01 BMatP= 1.12D-01
 IDIUse=2 WtCom= 0.00D+00 WtEn= 1.00D+00
 Coeff-En:   0.000D+00 0.211D-01 0.979D+00
 Coeff:      0.000D+00 0.211D-01 0.979D+00
 Gap=     0.160 Goal=   None    Shift=    0.000
 RMSDP=1.90D-02 MaxDP=6.15D-01 DE=-2.59D-01 OVMax= 7.73D-01

 Cycle   4  Pass 1  IDiag  1:
 E= -276.586739859981     Delta-E=        8.404876642124 Rises=F Damp=F
 DIIS: error= 2.55D-01 at cycle   4 NSaved=   4.
 NSaved= 4 IEnMin= 3 EnMin= -284.991616502105     IErMin= 2 ErrMin= 1.70D-02
 ErrMax= 2.55D-01 EMaxC= 1.00D-01 BMatC= 1.32D+01 BMatP= 1.12D-01
 IDIUse=2 WtCom= 0.00D+00 WtEn= 1.00D+00
 EnCoef did     5 forward-backward iterations
 Coeff-En:   0.296D-01 0.000D+00 0.908D+00 0.621D-01
 Coeff:      0.296D-01 0.000D+00 0.908D+00 0.621D-01
 Gap=     0.023 Goal=   None    Shift=    0.000
 RMSDP=1.29D-02 MaxDP=4.41D-01 DE= 8.40D+00 OVMax= 6.47D-01

 Cycle   5  Pass 1  IDiag  1:
 E= -284.411098592889     Delta-E=       -7.824358732908 Rises=F Damp=F
 DIIS: error= 7.18D-02 at cycle   5 NSaved=   5.
 NSaved= 5 IEnMin= 3 EnMin= -284.991616502105     IErMin= 2 ErrMin= 1.70D-02
 ErrMax= 7.18D-02 EMaxC= 1.00D-01 BMatC= 1.29D+00 BMatP= 1.12D-01
 IDIUse=2 WtCom= 0.00D+00 WtEn= 1.00D+00
 EnCoef did     5 forward-backward iterations
 Coeff-En:   0.101D-01 0.000D+00 0.701D+00 0.000D+00 0.289D+00
 Coeff:      0.101D-01 0.000D+00 0.701D+00 0.000D+00 0.289D+00
 Gap=     0.180 Goal=   None    Shift=    0.000
 RMSDP=5.39D-03 MaxDP=1.46D-01 DE=-7.82D+00 OVMax= 2.27D-01

 Cycle   6  Pass 1  IDiag  1:
 E= -285.189774748039     Delta-E=       -0.778676155150 Rises=F Damp=F
 DIIS: error= 1.01D-02 at cycle   6 NSaved=   6.
 NSaved= 6 IEnMin= 6 EnMin= -285.189774748039     IErMin= 6 ErrMin= 1.01D-02
 ErrMax= 1.01D-02 EMaxC= 1.00D-01 BMatC= 3.15D-02 BMatP= 1.12D-01
 IDIUse=3 WtCom= 8.99D-01 WtEn= 1.01D-01
 Coeff-Com: -0.207D+00 0.238D+00 0.290D+00-0.394D-02 0.148D-01 0.667D+00
 Coeff-En:   0.000D+00 0.000D+00 0.000D+00 0.000D+00 0.000D+00 0.100D+01
 Coeff:     -0.186D+00 0.214D+00 0.261D+00-0.354D-02 0.133D-01 0.701D+00
 Gap=     0.187 Goal=   None    Shift=    0.000
 RMSDP=1.51D-03 MaxDP=3.32D-02 DE=-7.79D-01 OVMax= 3.41D-02

 Cycle   7  Pass 1  IDiag  1:
 E= -285.208240849901     Delta-E=       -0.018466101862 Rises=F Damp=F
 DIIS: error= 5.10D-03 at cycle   7 NSaved=   7.
 NSaved= 7 IEnMin= 7 EnMin= -285.208240849901     IErMin= 7 ErrMin= 5.10D-03
 ErrMax= 5.10D-03 EMaxC= 1.00D-01 BMatC= 6.53D-03 BMatP= 3.15D-02
 IDIUse=3 WtCom= 9.49D-01 WtEn= 5.10D-02
 Coeff-Com: -0.426D-01 0.190D-01-0.379D-01-0.172D-02 0.340D-01 0.818D-01
 Coeff-Com:  0.948D+00
 Coeff-En:   0.000D+00 0.000D+00 0.000D+00 0.000D+00 0.000D+00 0.000D+00
 Coeff-En:   0.100D+01
 Coeff:     -0.404D-01 0.180D-01-0.359D-01-0.163D-02 0.322D-01 0.776D-01
 Coeff:      0.950D+00
 Gap=     0.175 Goal=   None    Shift=    0.000
 RMSDP=5.75D-04 MaxDP=1.15D-02 DE=-1.85D-02 OVMax= 2.17D-02

 Cycle   8  Pass 1  IDiag  1:
 E= -285.213181112408     Delta-E=       -0.004940262507 Rises=F Damp=F
 DIIS: error= 5.70D-04 at cycle   8 NSaved=   8.
 NSaved= 8 IEnMin= 8 EnMin= -285.213181112408     IErMin= 8 ErrMin= 5.70D-04
 ErrMax= 5.70D-04 EMaxC= 1.00D-01 BMatC= 1.41D-04 BMatP= 6.53D-03
 IDIUse=3 WtCom= 9.94D-01 WtEn= 5.70D-03
 Coeff-Com: -0.710D-02 0.876D-02-0.397D-01 0.869D-04 0.795D-02-0.282D-01
 Coeff-Com:  0.451D+00 0.607D+00
 Coeff-En:   0.000D+00 0.000D+00 0.000D+00 0.000D+00 0.000D+00 0.000D+00
 Coeff-En:   0.000D+00 0.100D+01
 Coeff:     -0.706D-02 0.871D-02-0.395D-01 0.864D-04 0.790D-02-0.280D-01
 Coeff:      0.448D+00 0.610D+00
 Gap=     0.178 Goal=   None    Shift=    0.000
 RMSDP=1.08D-04 MaxDP=2.17D-03 DE=-4.94D-03 OVMax= 3.68D-03

 Cycle   9  Pass 1  IDiag  1:
 E= -285.213248784233     Delta-E=       -0.000067671825 Rises=F Damp=F
 DIIS: error= 4.73D-04 at cycle   9 NSaved=   9.
 NSaved= 9 IEnMin= 9 EnMin= -285.213248784233     IErMin= 9 ErrMin= 4.73D-04
 ErrMax= 4.73D-04 EMaxC= 1.00D-01 BMatC= 4.75D-05 BMatP= 1.41D-04
 IDIUse=3 WtCom= 9.95D-01 WtEn= 4.73D-03
 Coeff-Com: -0.316D-03 0.897D-03-0.126D-01-0.201D-03 0.386D-02-0.191D-01
 Coeff-Com:  0.844D-01 0.237D+00 0.706D+00
 Coeff-En:   0.000D+00 0.000D+00 0.000D+00 0.000D+00 0.000D+00 0.000D+00
 Coeff-En:   0.000D+00 0.320D+00 0.680D+00
 Coeff:     -0.314D-03 0.892D-03-0.125D-01-0.200D-03 0.384D-02-0.190D-01
 Coeff:      0.840D-01 0.238D+00 0.706D+00
 Gap=     0.177 Goal=   None    Shift=    0.000
 RMSDP=4.25D-05 MaxDP=9.18D-04 DE=-6.77D-05 OVMax= 1.84D-03

 Cycle  10  Pass 1  IDiag  1:
 E= -285.213284938471     Delta-E=       -0.000036154238 Rises=F Damp=F
 DIIS: error= 2.38D-05 at cycle  10 NSaved=  10.
 NSaved=10 IEnMin=10 EnMin= -285.213284938471     IErMin=10 ErrMin= 2.38D-05
 ErrMax= 2.38D-05 EMaxC= 1.00D-01 BMatC= 3.07D-07 BMatP= 4.75D-05
 IDIUse=1 WtCom= 1.00D+00 WtEn= 0.00D+00
 Coeff-Com: -0.835D-04 0.130D-02-0.215D-02-0.490D-04 0.541D-03-0.635D-02
 Coeff-Com:  0.615D-03 0.652D-01 0.295D+00 0.646D+00
 Coeff:     -0.835D-04 0.130D-02-0.215D-02-0.490D-04 0.541D-03-0.635D-02
 Coeff:      0.615D-03 0.652D-01 0.295D+00 0.646D+00
 Gap=     0.177 Goal=   None    Shift=    0.000
 RMSDP=7.74D-06 MaxDP=1.91D-04 DE=-3.62D-05 OVMax= 3.06D-04

 Cycle  11  Pass 1  IDiag  1:
 E= -285.213284801403     Delta-E=        0.000000137068 Rises=F Damp=F
 DIIS: error= 3.34D-05 at cycle  11 NSaved=  11.
 NSaved=11 IEnMin=10 EnMin= -285.213284938471     IErMin=10 ErrMin= 2.38D-05
 ErrMax= 3.34D-05 EMaxC= 1.00D-01 BMatC= 4.75D-07 BMatP= 3.07D-07
 IDIUse=1 WtCom= 1.00D+00 WtEn= 0.00D+00
 Coeff-Com:  0.148D-03 0.218D-03-0.162D-03-0.107D-04 0.584D-04-0.210D-02
 Coeff-Com: -0.105D-01 0.172D-01 0.136D+00 0.515D+00 0.344D+00
 Coeff:      0.148D-03 0.218D-03-0.162D-03-0.107D-04 0.584D-04-0.210D-02
 Coeff:     -0.105D-01 0.172D-01 0.136D+00 0.515D+00 0.344D+00
 Gap=     0.177 Goal=   None    Shift=    0.000
 RMSDP=5.10D-06 MaxDP=1.08D-04 DE= 1.37D-07 OVMax= 2.40D-04

 Cycle  12  Pass 1  IDiag  1:
 E= -285.213285203582     Delta-E=       -0.000000402179 Rises=F Damp=F
 DIIS: error= 4.05D-06 at cycle  12 NSaved=  12.
 NSaved=12 IEnMin=12 EnMin= -285.213285203582     IErMin=12 ErrMin= 4.05D-06
 ErrMax= 4.05D-06 EMaxC= 1.00D-01 BMatC= 4.98D-09 BMatP= 3.07D-07
 IDIUse=1 WtCom= 1.00D+00 WtEn= 0.00D+00
 Coeff-Com:  0.100D-03-0.126D-03 0.360D-03 0.499D-05-0.991D-04 0.248D-03
 Coeff-Com: -0.522D-02-0.376D-02 0.709D-02 0.120D+00 0.137D+00 0.744D+00
 Coeff:      0.100D-03-0.126D-03 0.360D-03 0.499D-05-0.991D-04 0.248D-03
 Coeff:     -0.522D-02-0.376D-02 0.709D-02 0.120D+00 0.137D+00 0.744D+00
 Gap=     0.177 Goal=   None    Shift=    0.000
 RMSDP=9.04D-07 MaxDP=1.52D-05 DE=-4.02D-07 OVMax= 3.66D-05

 Cycle  13  Pass 1  IDiag  1:
 E= -285.213285204523     Delta-E=       -0.000000000941 Rises=F Damp=F
 DIIS: error= 6.33D-06 at cycle  13 NSaved=  13.
 NSaved=13 IEnMin=13 EnMin= -285.213285204523     IErMin=12 ErrMin= 4.05D-06
 ErrMax= 6.33D-06 EMaxC= 1.00D-01 BMatC= 6.74D-09 BMatP= 4.98D-09
 IDIUse=1 WtCom= 1.00D+00 WtEn= 0.00D+00
 Coeff-Com:  0.464D-05-0.206D-04 0.691D-04 0.120D-05-0.335D-04 0.297D-03
 Coeff-Com:  0.836D-03-0.582D-03-0.713D-02-0.217D-01-0.204D-01 0.134D-01
 Coeff-Com:  0.104D+01
 Coeff:      0.464D-05-0.206D-04 0.691D-04 0.120D-05-0.335D-04 0.297D-03
 Coeff:      0.836D-03-0.582D-03-0.713D-02-0.217D-01-0.204D-01 0.134D-01
 Coeff:      0.104D+01
 Gap=     0.177 Goal=   None    Shift=    0.000
 RMSDP=5.19D-07 MaxDP=1.04D-05 DE=-9.41D-10 OVMax= 2.17D-05

 Cycle  14  Pass 1  IDiag  1:
 E= -285.213285209746     Delta-E=       -0.000000005222 Rises=F Damp=F
 DIIS: error= 3.16D-07 at cycle  14 NSaved=  14.
 NSaved=14 IEnMin=14 EnMin= -285.213285209746     IErMin=14 ErrMin= 3.16D-07
 ErrMax= 3.16D-07 EMaxC= 1.00D-01 BMatC= 3.03D-11 BMatP= 4.98D-09
 IDIUse=1 WtCom= 1.00D+00 WtEn= 0.00D+00
 Coeff-Com: -0.226D-05 0.109D-05 0.547D-05 0.199D-06-0.671D-05 0.632D-04
 Coeff-Com:  0.367D-03-0.116D-03-0.225D-02-0.101D-01-0.789D-02-0.314D-01
 Coeff-Com:  0.225D+00 0.827D+00
 Coeff:     -0.226D-05 0.109D-05 0.547D-05 0.199D-06-0.671D-05 0.632D-04
 Coeff:      0.367D-03-0.116D-03-0.225D-02-0.101D-01-0.789D-02-0.314D-01
 Coeff:      0.225D+00 0.827D+00
 Gap=     0.177 Goal=   None    Shift=    0.000
 RMSDP=7.28D-08 MaxDP=1.19D-06 DE=-5.22D-09 OVMax= 3.62D-06

 SCF Done:  E(RB3PW91) =  -285.213285210     A.U. after   14 cycles
             Convg  =    0.7281D-07             -V/T =  2.1368
 KE= 2.509016015288D+02 PE=-9.492087038680D+02 EE= 2.688832352340D+02
 Leave Link  502 at Wed Oct 26 17:24:11 2016, MaxMem= 3370123264 cpu:      41.2
 (Enter /opt/qcapps/g09/l801.exe)
 Range of M.O.s used for correlation:     1    95
 NBasis=    95 NAE=    19 NBE=    19 NFC=     0 NFV=     0
 NROrb=     95 NOA=    19 NOB=    19 NVA=    76 NVB=    76
 Leave Link  801 at Wed Oct 26 17:24:11 2016, MaxMem= 3370123264 cpu:       0.3
 (Enter /opt/qcapps/g09/l1101.exe)
 Using compressed storage, NAtomX=     6.
 Will process   7 centers per pass.
   1 Symmetry operations used in ECPInt.
 ECPInt:  NShTT=     561 NPrTT=    2216 LenC2=     560 LenP2D=    1860.
 LDataN:  DoStor=T MaxTD1= 7 Len=  274
 Leave Link 1101 at Wed Oct 26 17:24:11 2016, MaxMem= 3370123264 cpu:       3.3
 (Enter /opt/qcapps/g09/l1102.exe)
 Symmetrizing basis deriv contribution to polar:
 IMax=3 JMax=2 DiffMx= 0.00D+00
 Leave Link 1102 at Wed Oct 26 17:24:12 2016, MaxMem= 3370123264 cpu:       0.3
 (Enter /opt/qcapps/g09/l1110.exe)
 Forming Gx(P) for the SCF density, NAtomX=     6.
 Integral derivatives from FoFDir/FoFCou, PRISM(SPDF).
 Do as many integral derivatives as possible in FoFDir.
 G2DrvN: MDV=    3370123112.
 G2DrvN: will do     7 centers at a time, making    1 passes doing MaxLOS=3.
 Calling FoFCou, ICntrl=  3107 FMM=F I1Cent=   0 AccDes= 0.00D+00.
 FoFCou: FMM=F IPFlag=           0 FMFlag=      100000 FMFlg1=           0
         NFxFlg=           0 DoJE=F BraDBF=F KetDBF=F FulRan=T
         Omega=  0.000000  0.000000  1.000000  0.000000  0.000000 ICntrl=    3107 IOpCl=  0
         NMat0=    1 NMatS0=    1 NMatT0=    0 NMatD0=    1 NMtDS0=    0 NMtDT0=    0
         I1Cent=           0 NGrid=           0.
 Symmetry not used in FoFCou.
 FoFDir/FoFCou used for L=0 through L=3.
 End of G2Drv Frequency-dependent properties file   721 does not exist.
 End of G2Drv Frequency-dependent properties file   722 does not exist.
 Leave Link 1110 at Wed Oct 26 17:24:17 2016, MaxMem= 3370123264 cpu:      46.2
 (Enter /opt/qcapps/g09/l1002.exe)
 Minotr:  Closed shell wavefunction.
          IDoAtm=111111
          Direct CPHF calculation.
          Differentiating once with respect to electric field.
                with respect to dipole field.
          Differentiating once with respect to nuclear coordinates.
          Requested convergence is 1.0D-08 RMS, and 1.0D-07 maximum.
          Secondary convergence is 1.0D-12 RMS, and 1.0D-12 maximum.
          NewPWx=T KeepS1=F KeepF1=F KeepIn=T MapXYZ=F SortEE=F KeepMc=T.
          MDV=    3370123200 using IRadAn=       1.
 Generate precomputed XC quadrature information.
          Keep R1 ints in memory in canonical form, NReq=16851278.
 Symmetry not used in FoFDir.
 MinBra= 0 MaxBra= 3 Meth= 1.
 IRaf=       0 NMat=   1 IRICut=       1 DoRegI=T DoRafI=F ISym2E= 0 JSym2E=0.
          Solving linear equations simultaneously, MaxMat=       0.
          There are    21 degrees of freedom in the 1st order CPHF.  IDoFFX=5.
     18 vectors produced by pass  0 Test12= 6.88D-15 4.76D-09 XBig12= 6.07D+01 1.96D+00.
 AX will form    18 AO Fock derivatives at one time.
     18 vectors produced by pass  1 Test12= 6.88D-15 4.76D-09 XBig12= 5.17D+01 1.76D+00.
     18 vectors produced by pass  2 Test12= 6.88D-15 4.76D-09 XBig12= 1.20D+00 2.87D-01.
     18 vectors produced by pass  3 Test12= 6.88D-15 4.76D-09 XBig12= 2.56D-02 3.95D-02.
     18 vectors produced by pass  4 Test12= 6.88D-15 4.76D-09 XBig12= 2.55D-04 3.79D-03.
     18 vectors produced by pass  5 Test12= 6.88D-15 4.76D-09 XBig12= 1.33D-06 1.90D-04.
     15 vectors produced by pass  6 Test12= 6.88D-15 4.76D-09 XBig12= 3.58D-09 8.43D-06.
      3 vectors produced by pass  7 Test12= 6.88D-15 4.76D-09 XBig12= 7.61D-12 4.08D-07.
      2 vectors produced by pass  8 Test12= 6.88D-15 4.76D-09 XBig12= 1.38D-14 1.79D-08.
 Inverted reduced A of dimension   128 with in-core refinement.
 FullF1:  Do perturbations    1 to     3.
 Isotropic polarizability for W=    0.000000       36.89 Bohr**3.
 End of Minotr Frequency-dependent properties file   721 does not exist.
 End of Minotr Frequency-dependent properties file   722 does not exist.
 Leave Link 1002 at Wed Oct 26 17:24:27 2016, MaxMem= 3370123264 cpu:      78.0
 (Enter /opt/qcapps/g09/l601.exe)
 Copying SCF densities to generalized density rwf, IOpCl= 0 IROHF=0.

 **********************************************************************

            Population analysis using the SCF density.

 **********************************************************************

 Orbital symmetries:
       Occupied  (A) (A) (A) (A) (A) (A) (A) (A) (A) (A) (A) (A)
                 (A) (A) (A) (A) (A) (A) (A)
       Virtual   (A) (A) (A) (A) (A) (A) (A) (A) (A) (A) (A) (A)
                 (A) (A) (A) (A) (A) (A) (A) (A) (A) (A) (A) (A)
                 (A) (A) (A) (A) (A) (A) (A) (A) (A) (A) (A) (A)
                 (A) (A) (A) (A) (A) (A) (A) (A) (A) (A) (A) (A)
                 (A) (A) (A) (A) (A) (A) (A) (A) (A) (A) (A) (A)
                 (A) (A) (A) (A) (A) (A) (A) (A) (A) (A) (A) (A)
                 (A) (A) (A) (A)
 The electronic state is 1-A.
 Alpha  occ. eigenvalues --  -19.18008 -19.11040 -19.10566  -2.48357  -1.53017
 Alpha  occ. eigenvalues --   -1.52361  -1.51709  -1.03754  -0.88842  -0.85819
 Alpha  occ. eigenvalues --   -0.57046  -0.44785  -0.38417  -0.34905  -0.33863
 Alpha  occ. eigenvalues --   -0.32230  -0.30822  -0.30644  -0.27283
 Alpha virt. eigenvalues --   -0.09572  -0.07064  -0.05805  -0.01344   0.00218
 Alpha virt. eigenvalues --    0.01350   0.01797   0.03402   0.03706   0.05221
 Alpha virt. eigenvalues --    0.09925   0.10837   0.12076   0.12983   0.13920
 Alpha virt. eigenvalues --    0.14595   0.15569   0.19756   0.22336   0.24127
 Alpha virt. eigenvalues --    0.27451   0.50466   0.51817   0.52152   0.56341
 Alpha virt. eigenvalues --    0.58228   0.74600   0.84830   0.90410   0.94693
 Alpha virt. eigenvalues --    0.99862   1.01819   1.03385   1.07047   1.12392
 Alpha virt. eigenvalues --    1.13728   1.17244   1.18654   1.23721   1.27405
 Alpha virt. eigenvalues --    1.30240   1.30571   1.32206   1.33074   1.37301
 Alpha virt. eigenvalues --    1.45589   1.49801   1.56347   1.62161   1.69119
 Alpha virt. eigenvalues --    1.72486   1.77835   1.81501   1.86290   1.91332
 Alpha virt. eigenvalues --    1.93717   1.93923   2.16238   2.22467   2.23036
 Alpha virt. eigenvalues --    2.30496   2.34934   2.38803   2.42960   2.48011
 Alpha virt. eigenvalues --    2.68130   2.71616   2.77745   2.87676   3.10084
 Alpha virt. eigenvalues --    3.38720   3.58006  24.34684  24.49178  24.71695
 Alpha virt. eigenvalues --   35.55779
     Molecular Orbital Coefficients:
                           1         2         3         4         5
                           O         O         O         O         O
     Eigenvalues --   -19.18008 -19.11040 -19.10566  -2.48357  -1.53017
   1 1   Ti 1S         -0.00009  -0.00009  -0.00015   0.39465   0.00381
   2        2S         -0.00032  -0.00078  -0.00096   0.71320   0.00620
   3        3S         -0.00022   0.00133   0.00117   0.51801   0.00745
   4        4S          0.00390   0.00529   0.00587   0.01041   0.00024
   5        5S         -0.00155  -0.00218  -0.00184  -0.00466   0.00055
   6        6S          0.00030   0.00048   0.00039   0.00127  -0.00005
   7        7PX        -0.00012   0.00003  -0.00005  -0.00106   0.09285
   8        7PY         0.00007   0.00001  -0.00008   0.00022   0.03942
   9        7PZ        -0.00004  -0.00004  -0.00006   0.00068  -0.00535
  10        8PX        -0.00058   0.00022  -0.00027  -0.00735   0.63134
  11        8PY         0.00035   0.00007  -0.00049   0.00176   0.26815
  12        8PZ        -0.00022  -0.00023  -0.00031   0.00573  -0.03646
  13        9PX         0.00103  -0.00145   0.00100  -0.00036   0.36513
  14        9PY        -0.00067  -0.00045   0.00180  -0.00167   0.15559
  15        9PZ         0.00044   0.00118   0.00108  -0.00714  -0.02187
  16       10PX         0.00301  -0.00471   0.00242   0.00113   0.00513
  17       10PY        -0.00159  -0.00132   0.00351  -0.00025   0.00294
  18       10PZ         0.00053   0.00224   0.00185  -0.00164  -0.00005
  19       11PX        -0.00088   0.00094  -0.00056  -0.00012  -0.00090
  20       11PY         0.00045   0.00033  -0.00089   0.00022  -0.00069
  21       11PZ        -0.00030  -0.00065  -0.00048   0.00080   0.00027
  22       12D 0       -0.00010  -0.00006  -0.00012   0.00272   0.00063
  23       12D+1        0.00001  -0.00009   0.00010   0.00317   0.00783
  24       12D-1       -0.00003  -0.00003   0.00018   0.00000   0.00408
  25       12D+2        0.00015   0.00012  -0.00008  -0.00089  -0.00672
  26       12D-2       -0.00008   0.00009   0.00028  -0.00377  -0.00136
  27       13D 0       -0.00099   0.00009  -0.00056   0.00047   0.00016
  28       13D+1        0.00092  -0.00161   0.00065   0.00051  -0.00052
  29       13D-1       -0.00042  -0.00046   0.00110  -0.00026   0.00018
  30       13D+2        0.00164   0.00075  -0.00047  -0.00008  -0.00074
  31       13D-2       -0.00141   0.00061   0.00141   0.00007   0.00013
  32       14D 0       -0.00016   0.00013  -0.00019  -0.00043   0.00015
  33       14D+1       -0.00008  -0.00086   0.00036   0.00012  -0.00091
  34       14D-1        0.00009  -0.00022   0.00032   0.00020  -0.00047
  35       14D+2        0.00012   0.00019  -0.00024   0.00035   0.00094
  36       14D-2       -0.00023   0.00032   0.00034   0.00021   0.00040
  37       15F 0       -0.00024   0.00032   0.00012  -0.00081  -0.00064
  38       15F+1       -0.00020   0.00011  -0.00003  -0.00019   0.00124
  39       15F-1        0.00017   0.00006   0.00007  -0.00026   0.00074
  40       15F+2        0.00030  -0.00039   0.00010   0.00067  -0.00253
  41       15F-2       -0.00025  -0.00028  -0.00015   0.00084   0.00023
  42       15F+3        0.00009   0.00019   0.00013  -0.00021   0.00068
  43       15F-3       -0.00040   0.00024   0.00004   0.00007   0.00107
  44 2   O  1S          0.00014   0.00202   0.99516  -0.00431  -0.02009
  45        2S          0.00037   0.00021   0.02906   0.00674   0.04126
  46        2PX         0.00016  -0.00010  -0.00013  -0.00374  -0.00880
  47        2PY        -0.00002  -0.00015  -0.00114  -0.00636  -0.02618
  48        2PZ         0.00004  -0.00001  -0.00039  -0.00299  -0.01332
  49        3S         -0.00121  -0.00003  -0.01668   0.00780   0.03227
  50        3PX        -0.00128   0.00021   0.00058  -0.00202  -0.00043
  51        3PY         0.00065   0.00039   0.00343  -0.00421  -0.00924
  52        3PZ        -0.00026  -0.00007   0.00108  -0.00162  -0.00472
  53        4D 0        0.00010   0.00002   0.00035  -0.00087  -0.00076
  54        4D+1       -0.00002   0.00011  -0.00016   0.00080   0.00106
  55        4D-1        0.00006   0.00001  -0.00025   0.00135   0.00276
  56        4D+2       -0.00003  -0.00009   0.00025  -0.00099  -0.00268
  57        4D-2        0.00023   0.00000   0.00000   0.00169   0.00098
  58 3   O  1S          0.00002   0.99513  -0.00201  -0.00609   0.02972
  59        2S          0.00003   0.02870   0.00013   0.00977  -0.06143
  60        2PX         0.00003   0.00087   0.00013   0.00911  -0.03457
  61        2PY         0.00000   0.00026   0.00007   0.00301  -0.01049
  62        2PZ        -0.00003  -0.00056  -0.00004  -0.00591   0.02767
  63        3S         -0.00010  -0.01572  -0.00024   0.00990  -0.04126
  64        3PX        -0.00014  -0.00235  -0.00044   0.00481  -0.00750
  65        3PY        -0.00028  -0.00078  -0.00027   0.00171  -0.00174
  66        3PZ         0.00043   0.00132   0.00016  -0.00295   0.00715
  67        4D 0       -0.00004   0.00007   0.00002  -0.00035  -0.00044
  68        4D+1        0.00004   0.00026  -0.00001  -0.00264   0.00475
  69        4D-1        0.00013   0.00008  -0.00009  -0.00090   0.00149
  70        4D+2        0.00000  -0.00020   0.00004   0.00185  -0.00269
  71        4D-2       -0.00002  -0.00015  -0.00011   0.00141  -0.00139
  72 4   O  1S          0.99506  -0.00002  -0.00009  -0.00130  -0.00852
  73        2S          0.02908   0.00000   0.00037   0.00165   0.01722
  74        2PX        -0.00046  -0.00008   0.00007  -0.00211  -0.00941
  75        2PY        -0.00011   0.00005   0.00010   0.00084   0.00656
  76        2PZ         0.00147   0.00003   0.00002  -0.00042  -0.00118
  77        3S         -0.01482   0.00009  -0.00156   0.00334   0.01859
  78        3PX         0.00258   0.00010  -0.00011  -0.00230  -0.00501
  79        3PY        -0.00252  -0.00029  -0.00100   0.00144   0.00456
  80        3PZ        -0.00004  -0.00022  -0.00027  -0.00031  -0.00081
  81        4D 0        0.00072  -0.00003  -0.00001  -0.00054  -0.00054
  82        4D+1        0.00015   0.00000   0.00001   0.00036   0.00050
  83        4D-1       -0.00085   0.00005   0.00000  -0.00013  -0.00045
  84        4D+2       -0.00024   0.00009   0.00011   0.00070   0.00019
  85        4D-2        0.00013  -0.00001   0.00004  -0.00068  -0.00155
  86 5   H  1S         -0.00118   0.00002   0.00013   0.00005   0.00163
  87        2S          0.00088   0.00032  -0.00027   0.00028   0.00037
  88        3PX         0.00022  -0.00002   0.00004   0.00006  -0.00017
  89        3PY        -0.00101   0.00004   0.00004  -0.00001   0.00019
  90        3PZ         0.00168   0.00000  -0.00002  -0.00005  -0.00021
  91 6   H  1S          0.00107   0.00009   0.00116   0.00102   0.01248
  92        2S          0.00276   0.00120   0.00153  -0.00212  -0.00453
  93        3PX        -0.00021  -0.00011  -0.00050  -0.00048  -0.00228
  94        3PY         0.00009  -0.00008   0.00021  -0.00009  -0.00030
  95        3PZ         0.00002   0.00003  -0.00012  -0.00020  -0.00105
                           6         7         8         9        10
                           O         O         O         O         O
     Eigenvalues --    -1.52361  -1.51709  -1.03754  -0.88842  -0.85819
   1 1   Ti 1S         -0.00340  -0.00188  -0.02297  -0.05245  -0.03439
   2        2S         -0.00010  -0.00346  -0.05270  -0.12196  -0.08046
   3        3S         -0.01949  -0.00267  -0.02194  -0.05881  -0.03959
   4        4S         -0.00106  -0.00097   0.00212   0.01603   0.01481
   5        5S          0.00128  -0.00066   0.01157   0.00765   0.00385
   6        6S         -0.00016   0.00010  -0.00140  -0.00102  -0.00035
   7        7PX        -0.00458  -0.04206  -0.01132  -0.00409   0.02519
   8        7PY         0.02649   0.09252   0.00196  -0.01582   0.01279
   9        7PZ         0.10061  -0.02697  -0.00472  -0.01264  -0.01106
  10        8PX        -0.03122  -0.28597  -0.07964  -0.02899   0.17990
  11        8PY         0.18002   0.62932   0.01372  -0.11268   0.09131
  12        8PZ         0.68385  -0.18342  -0.03328  -0.09012  -0.07906
  13        9PX        -0.01837  -0.16048  -0.03815  -0.01429   0.09114
  14        9PY         0.10249   0.35570   0.00586  -0.05627   0.04614
  15        9PZ         0.39037  -0.10349  -0.01704  -0.04584  -0.04079
  16       10PX         0.00316  -0.00454   0.00136   0.00418   0.00950
  17       10PY         0.00232   0.00783   0.00141  -0.00137   0.00025
  18       10PZ         0.00932  -0.00286  -0.00017  -0.00605  -0.00400
  19       11PX        -0.00014   0.00055   0.00631  -0.00014  -0.00858
  20       11PY        -0.00065  -0.00183  -0.00217   0.00589  -0.00387
  21       11PZ        -0.00211   0.00043   0.00290   0.00520   0.00420
  22       12D 0       -0.00500   0.00000  -0.01344  -0.02517  -0.00192
  23       12D+1       -0.00515   0.00287   0.01103   0.00327  -0.08679
  24       12D-1       -0.00085  -0.00107  -0.00094   0.03590  -0.03930
  25       12D+2        0.00247  -0.00002   0.01640  -0.00795   0.06099
  26       12D-2        0.00378  -0.00149  -0.00688   0.07201   0.02071
  27       13D 0       -0.00609   0.00154   0.00024  -0.00526  -0.00211
  28       13D+1        0.00158   0.00123   0.00163   0.00387  -0.00895
  29       13D-1       -0.00156  -0.00203   0.00027   0.00304  -0.00533
  30       13D+2        0.00227  -0.00127  -0.00013   0.00131   0.00954
  31       13D-2        0.00308   0.00299   0.00047   0.00869   0.00236
  32       14D 0        0.00064  -0.00007  -0.00210  -0.00130  -0.00067
  33       14D+1        0.00080  -0.00072   0.00324   0.00044  -0.00018
  34       14D-1        0.00008   0.00015  -0.00039   0.00161  -0.00081
  35       14D+2        0.00026   0.00008   0.00253  -0.00109   0.00210
  36       14D-2       -0.00110  -0.00089  -0.00134   0.00239   0.00014
  37       15F 0       -0.00163  -0.00016  -0.00207  -0.00732  -0.00468
  38       15F+1        0.00020   0.00016  -0.00165  -0.00126  -0.00161
  39       15F-1       -0.00012   0.00043   0.00036  -0.00299  -0.00005
  40       15F+2        0.00141  -0.00156   0.00156   0.00029   0.00892
  41       15F-2        0.00283   0.00241  -0.00034   0.00896   0.00399
  42       15F+3       -0.00227  -0.00125   0.00061  -0.00751  -0.00192
  43       15F-3       -0.00101   0.00134  -0.00241  -0.00021  -0.00616
  44 2   O  1S         -0.01463  -0.01077  -0.02492  -0.20962   0.06742
  45        2S          0.03032   0.02259   0.05161   0.45588  -0.14877
  46        2PX        -0.01169  -0.01215   0.01047   0.00646  -0.00074
  47        2PY        -0.01933  -0.00890  -0.01622  -0.05956   0.01446
  48        2PZ        -0.00244  -0.00946  -0.00089  -0.01949  -0.00149
  49        3S          0.02075   0.01487   0.06169   0.51429  -0.16746
  50        3PX        -0.00366  -0.00408   0.00855   0.00016  -0.00240
  51        3PY        -0.00610  -0.00139  -0.01425  -0.06091   0.01540
  52        3PZ         0.00141  -0.00302  -0.00152  -0.02009   0.00383
  53        4D 0       -0.00196  -0.00002  -0.00178  -0.00626   0.00243
  54        4D+1        0.00034   0.00142   0.00015   0.00347  -0.00157
  55        4D-1        0.00011   0.00128   0.00040   0.00409  -0.00025
  56        4D+2       -0.00116   0.00064  -0.00123  -0.00469   0.00134
  57        4D-2        0.00205   0.00141  -0.00226  -0.00071   0.00016
  58 3   O  1S         -0.01628   0.00174  -0.00839  -0.06759  -0.21697
  59        2S          0.03346  -0.00361   0.01708   0.14713   0.48058
  60        2PX         0.02326  -0.00666   0.00308   0.01414   0.03414
  61        2PY         0.01022   0.00830   0.00228  -0.00062   0.01047
  62        2PZ        -0.00551  -0.00119  -0.00498  -0.01559  -0.02414
  63        3S          0.02151  -0.00235   0.01983   0.16348   0.52613
  64        3PX         0.00608  -0.00257   0.00324   0.01543   0.03662
  65        3PY         0.00346   0.00421   0.00162   0.00356   0.00963
  66        3PZ         0.00152  -0.00070  -0.00344  -0.01076  -0.02701
  67        4D 0       -0.00205   0.00051   0.00035   0.00028  -0.00076
  68        4D+1       -0.00109   0.00033  -0.00073  -0.00226  -0.00502
  69        4D-1       -0.00074  -0.00116  -0.00069  -0.00013  -0.00294
  70        4D+2        0.00201  -0.00165   0.00014   0.00134   0.00422
  71        4D-2        0.00218   0.00150   0.00030   0.00090   0.00261
  72 4   O  1S         -0.00124   0.00912  -0.21248   0.03627  -0.00316
  73        2S          0.00244  -0.01918   0.46258  -0.08278   0.00791
  74        2PX        -0.00139   0.01229  -0.01058  -0.00670  -0.00305
  75        2PY         0.00158  -0.00359  -0.00018   0.03935  -0.00652
  76        2PZ         0.00224   0.00099   0.08456  -0.01949  -0.00406
  77        3S          0.00216  -0.01730   0.48128  -0.08495   0.00487
  78        3PX        -0.00010   0.00557  -0.02734   0.00035  -0.00226
  79        3PY         0.00058  -0.00094   0.02411   0.01877  -0.00346
  80        3PZ         0.00305  -0.00106   0.03127  -0.00558  -0.00131
  81        4D 0       -0.00029   0.00053  -0.00155  -0.00128   0.00039
  82        4D+1       -0.00105  -0.00005   0.00273  -0.00073   0.00066
  83        4D-1        0.00042   0.00025  -0.00154   0.00235  -0.00114
  84        4D+2       -0.00002  -0.00131  -0.00223  -0.00230   0.00039
  85        4D-2       -0.00030   0.00044  -0.00549  -0.00041  -0.00020
  86 5   H  1S          0.00036  -0.00188   0.15228  -0.04155   0.00222
  87        2S         -0.00153   0.00151   0.00970  -0.00577  -0.00032
  88        3PX         0.00003   0.00009  -0.00400   0.00074  -0.00005
  89        3PY         0.00008  -0.00027   0.01366  -0.00254  -0.00011
  90        3PZ        -0.00019   0.00038  -0.01847   0.00442  -0.00018
  91 6   H  1S          0.00507  -0.00402   0.08717   0.06027  -0.01968
  92        2S         -0.00424   0.00236  -0.01240   0.00294  -0.00703
  93        3PX        -0.00108   0.00029  -0.00081  -0.00784   0.00238
  94        3PY         0.00023   0.00133  -0.01295   0.00819  -0.00205
  95        3PZ         0.00029   0.00025  -0.00251  -0.00094  -0.00032
                          11        12        13        14        15
                           O         O         O         O         O
     Eigenvalues --    -0.57046  -0.44785  -0.38417  -0.34905  -0.33863
   1 1   Ti 1S         -0.01497   0.01898   0.02570   0.03772  -0.00725
   2        2S         -0.03654   0.04575   0.06115   0.09315  -0.01831
   3        3S         -0.01750   0.02698   0.03820   0.05680  -0.01078
   4        4S          0.04459  -0.10072  -0.11996  -0.15884   0.01272
   5        5S         -0.02156   0.00128   0.03744   0.08801  -0.01872
   6        6S          0.00384  -0.00097  -0.00183  -0.01652   0.00353
   7        7PX        -0.00988   0.00296   0.00842   0.00160   0.00937
   8        7PY         0.00444  -0.00143  -0.00555  -0.00039   0.00907
   9        7PZ        -0.00019  -0.00268   0.00434  -0.00206  -0.00209
  10        8PX        -0.07174   0.02176   0.06210   0.01158   0.07018
  11        8PY         0.03234  -0.01057  -0.04097  -0.00230   0.06762
  12        8PZ        -0.00146  -0.01958   0.03190  -0.01443  -0.01565
  13        9PX        -0.02308   0.00679   0.02041   0.00359   0.02835
  14        9PY         0.00941  -0.00113  -0.01092   0.00081   0.02705
  15        9PZ         0.00176  -0.00617   0.00880  -0.00370  -0.00802
  16       10PX         0.02322  -0.04313  -0.03170  -0.02224   0.06181
  17       10PY        -0.00821   0.01400   0.04318   0.03921   0.02298
  18       10PZ        -0.00310   0.02206  -0.05683   0.05763  -0.01563
  19       11PX        -0.00430   0.00073   0.03563   0.00812   0.01844
  20       11PY         0.00232  -0.00068  -0.00927   0.01175   0.01600
  21       11PZ        -0.00309   0.00330   0.00559   0.01157  -0.00189
  22       12D 0       -0.02692   0.05678   0.02433   0.20970   0.02613
  23       12D+1        0.02310   0.05545  -0.12035  -0.03814  -0.28602
  24       12D-1       -0.01476  -0.01209   0.01386   0.04273  -0.22811
  25       12D+2        0.09544   0.03357  -0.04218   0.01130   0.20606
  26       12D-2       -0.02640   0.08116   0.13093  -0.27128  -0.01123
  27       13D 0       -0.01230   0.02728  -0.00009   0.09079   0.00249
  28       13D+1        0.00504   0.02973  -0.05863  -0.01848  -0.08839
  29       13D-1       -0.00197  -0.00497   0.00823   0.02538  -0.07374
  30       13D+2        0.04303   0.00932  -0.01135  -0.00541   0.05731
  31       13D-2       -0.00148   0.03538   0.04886  -0.11392   0.00111
  32       14D 0       -0.00026   0.01608  -0.01485   0.01102  -0.00219
  33       14D+1       -0.00190   0.00983  -0.01074  -0.00574   0.02553
  34       14D-1        0.00148  -0.00640   0.00677   0.01829   0.00622
  35       14D+2        0.00292   0.00065   0.02114   0.00355  -0.02409
  36       14D-2       -0.00080   0.01167  -0.00123   0.00234   0.00493
  37       15F 0       -0.00181  -0.00280   0.00469   0.00607  -0.00097
  38       15F+1       -0.00468   0.00642  -0.00137  -0.00284  -0.00707
  39       15F-1        0.00212  -0.00151  -0.00430   0.00440  -0.00291
  40       15F+2        0.00769   0.00558  -0.00388   0.00092   0.01288
  41       15F-2        0.00000   0.00098   0.00584  -0.00844  -0.00096
  42       15F+3        0.01002   0.00581   0.00005   0.00633  -0.00083
  43       15F-3        0.00065   0.01280   0.00407   0.00573  -0.00075
  44 2   O  1S          0.04259   0.02716  -0.00059  -0.02129  -0.01515
  45        2S         -0.09980  -0.06395   0.00376   0.04759   0.03157
  46        2PX         0.09734   0.13300  -0.00539   0.01728   0.30102
  47        2PY        -0.07487  -0.13033   0.03731   0.19998   0.21464
  48        2PZ         0.00776   0.04351  -0.08062   0.31836  -0.04432
  49        3S         -0.12548  -0.09504  -0.01068   0.09665   0.06737
  50        3PX         0.05191   0.07956  -0.00910   0.00570   0.19822
  51        3PY        -0.04295  -0.07876   0.03080   0.12329   0.13350
  52        3PZ         0.00436   0.02751  -0.05116   0.20120  -0.03268
  53        4D 0       -0.00336  -0.00526   0.00319  -0.00384   0.00787
  54        4D+1       -0.00269  -0.00179   0.00005  -0.00220  -0.00470
  55        4D-1        0.00073  -0.00140   0.00440  -0.01759   0.00134
  56        4D+2       -0.00424  -0.00657   0.00360   0.00822   0.00589
  57        4D-2       -0.00822  -0.00836   0.00051   0.00129  -0.01383
  58 3   O  1S          0.00725  -0.00334   0.00215  -0.01413   0.02262
  59        2S         -0.01527   0.00711  -0.00191   0.03091  -0.04532
  60        2PX         0.00311  -0.00346   0.06432  -0.06973   0.35684
  61        2PY         0.01441  -0.02575  -0.01658   0.22280   0.14270
  62        2PZ        -0.02116   0.00383  -0.01634   0.30008  -0.11282
  63        3S         -0.03393   0.01859  -0.02060   0.07676  -0.11405
  64        3PX        -0.00022   0.00055   0.03855  -0.03760   0.21031
  65        3PY         0.00385  -0.01178  -0.01522   0.13843   0.08695
  66        3PZ        -0.00509  -0.00088  -0.00242   0.18000  -0.05936
  67        4D 0        0.00162   0.00057  -0.00072  -0.01063  -0.00478
  68        4D+1       -0.00105  -0.00016  -0.00258   0.01151  -0.00734
  69        4D-1       -0.00151   0.00109   0.00142  -0.00472  -0.00428
  70        4D+2       -0.00069   0.00132   0.00259  -0.00303   0.00832
  71        4D-2        0.00057  -0.00132   0.00002   0.01037   0.00524
  72 4   O  1S         -0.01573   0.05655  -0.02415  -0.00575   0.01211
  73        2S          0.02819  -0.12876   0.06584   0.01525  -0.02732
  74        2PX        -0.12104   0.13456   0.55980   0.07304  -0.07090
  75        2PY         0.41247   0.18129   0.08361   0.07898  -0.06765
  76        2PZ        -0.22199   0.44623  -0.15878  -0.00250   0.03302
  77        3S          0.08589  -0.22478   0.07527   0.02084  -0.06629
  78        3PX        -0.07284   0.08867   0.41209   0.05700  -0.05429
  79        3PY         0.23846   0.12768   0.04653   0.04816  -0.05090
  80        3PZ        -0.11436   0.29201  -0.11489   0.00043   0.02160
  81        4D 0       -0.01468   0.01413   0.00158   0.00106   0.00101
  82        4D+1        0.00015  -0.00572   0.01790   0.00189  -0.00049
  83        4D-1        0.01400   0.00999  -0.00006   0.00398  -0.00446
  84        4D+2       -0.00340  -0.00888  -0.01231   0.00044  -0.00014
  85        4D-2       -0.00887  -0.00194   0.00482   0.00021  -0.00021
  86 5   H  1S         -0.23759   0.12448  -0.02774  -0.02088   0.03136
  87        2S         -0.11231   0.08379  -0.01114  -0.01875   0.02059
  88        3PX         0.00172   0.00172   0.01869   0.00281  -0.00279
  89        3PY        -0.00479   0.01410   0.00083   0.00183  -0.00095
  90        3PZ         0.01653   0.00156  -0.00187   0.00170  -0.00049
  91 6   H  1S          0.18786   0.15689   0.00482   0.00494   0.00694
  92        2S          0.07844   0.13493   0.05437   0.05281   0.01842
  93        3PX        -0.00624  -0.00499   0.01357   0.00623   0.00141
  94        3PY        -0.01185  -0.00537  -0.00050  -0.00402   0.00792
  95        3PZ        -0.01041   0.00539  -0.00632   0.00598  -0.00141
                          16        17        18        19        20
                           O         O         O         O         V
     Eigenvalues --    -0.32230  -0.30822  -0.30644  -0.27283  -0.09572
   1 1   Ti 1S         -0.00729   0.05665   0.04007  -0.00307  -0.06787
   2        2S         -0.01810   0.14189   0.10182  -0.00719  -0.15654
   3        3S         -0.00753   0.07443   0.04861  -0.00693  -0.16430
   4        4S          0.02301  -0.17426  -0.08700   0.00918   0.51264
   5        5S          0.00531   0.10703   0.06049   0.01030   0.15758
   6        6S         -0.00255  -0.01701  -0.01095  -0.00272   0.06772
   7        7PX        -0.00926  -0.00605   0.00143   0.01360   0.00543
   8        7PY         0.00440   0.01131  -0.00050   0.01300  -0.00216
   9        7PZ        -0.00481   0.00888   0.01235  -0.00270   0.01461
  10        8PX        -0.06855  -0.04508   0.01027   0.10141   0.04111
  11        8PY         0.03228   0.08391  -0.00344   0.09675  -0.01642
  12        8PZ        -0.03536   0.06626   0.09171  -0.02016   0.10990
  13        9PX        -0.02145  -0.01717  -0.00158   0.04227   0.00528
  14        9PY         0.00811   0.02778   0.00361   0.03718   0.00024
  15        9PZ        -0.01077   0.02846   0.03402  -0.00878   0.01690
  16       10PX         0.04565   0.00283  -0.05548  -0.02563  -0.05914
  17       10PY        -0.04485  -0.08298   0.06686  -0.05059   0.04000
  18       10PZ         0.05108  -0.00697  -0.04407   0.02780  -0.28775
  19       11PX        -0.00639   0.00934  -0.00485   0.01176  -0.00294
  20       11PY         0.00332  -0.00237   0.01796   0.01378  -0.00546
  21       11PZ        -0.00022   0.01014   0.00895   0.00153  -0.09648
  22       12D 0        0.12413   0.04323  -0.14247   0.01095   0.46584
  23       12D+1       -0.02790   0.16767   0.05405  -0.01706   0.22389
  24       12D-1       -0.15095  -0.10342  -0.14175  -0.04052  -0.15086
  25       12D+2       -0.23080   0.01499  -0.06419   0.06158   0.02261
  26       12D-2        0.05191  -0.03044  -0.15431   0.02469  -0.00768
  27       13D 0        0.05919   0.00692  -0.06697   0.00228   0.20344
  28       13D+1       -0.02392   0.04573   0.00482   0.03547   0.10804
  29       13D-1       -0.06881  -0.03020  -0.05508   0.01218  -0.05771
  30       13D+2       -0.10752   0.00930  -0.02846  -0.00088   0.01479
  31       13D-2        0.02384   0.01761  -0.03180   0.01151   0.00563
  32       14D 0        0.01649  -0.01913  -0.02309  -0.00133   0.05104
  33       14D+1       -0.01048  -0.01141  -0.00717   0.04829   0.02994
  34       14D-1       -0.02238  -0.00520  -0.00386   0.02895  -0.01000
  35       14D+2       -0.02537   0.01288  -0.00319  -0.01490   0.00904
  36       14D-2        0.01078   0.02055   0.04677   0.01410  -0.00856
  37       15F 0        0.00173   0.00606   0.00759  -0.00499  -0.00739
  38       15F+1       -0.01349   0.00266   0.00238   0.01665   0.00011
  39       15F-1       -0.00690   0.00537  -0.00368   0.01228  -0.00033
  40       15F+2       -0.00606  -0.00497  -0.00289  -0.00914   0.00043
  41       15F-2        0.00585   0.00311  -0.01606   0.00760  -0.00221
  42       15F+3        0.01396   0.00842   0.00101   0.00990  -0.00165
  43       15F-3       -0.00577   0.00963  -0.00865  -0.01955   0.00098
  44 2   O  1S          0.00201  -0.00887  -0.01480  -0.01118   0.00934
  45        2S         -0.00459   0.02081   0.03877   0.03367  -0.02445
  46        2PX        -0.09730   0.41227  -0.00450  -0.16585  -0.00391
  47        2PY         0.06854  -0.00121   0.42137   0.16292   0.02809
  48        2PZ        -0.07810   0.13068  -0.20835   0.40090  -0.05917
  49        3S         -0.00917   0.04040   0.03714   0.00966  -0.05723
  50        3PX        -0.06581   0.29191  -0.00726  -0.11934  -0.00491
  51        3PY         0.04380   0.00593   0.29536   0.12493   0.03021
  52        3PZ        -0.05437   0.09669  -0.14807   0.29674  -0.05447
  53        4D 0        0.00424  -0.00202   0.01337  -0.00243   0.00239
  54        4D+1        0.00274  -0.00582   0.00375   0.00168  -0.00228
  55        4D-1        0.00128  -0.00410   0.00385  -0.01445  -0.00513
  56        4D+2        0.00355  -0.00406   0.01595   0.00342  -0.00119
  57        4D-2        0.00398  -0.01630  -0.00134   0.00572  -0.00034
  58 3   O  1S         -0.00267  -0.01464  -0.01026   0.00795   0.01103
  59        2S          0.00622   0.03404   0.02448  -0.02309  -0.03157
  60        2PX         0.25044  -0.19800  -0.26844   0.11905  -0.02961
  61        2PY        -0.32258  -0.28484  -0.07461  -0.25001   0.03857
  62        2PZ         0.33475   0.07000  -0.05584  -0.32951  -0.07654
  63        3S          0.01143   0.05944   0.03700  -0.00671  -0.05057
  64        3PX         0.16541  -0.12821  -0.18049   0.08802  -0.02692
  65        3PY        -0.21180  -0.19189  -0.04672  -0.17887   0.03545
  66        3PZ         0.21756   0.04546  -0.04079  -0.23707  -0.06887
  67        4D 0       -0.01405   0.00394   0.00670   0.00626   0.00070
  68        4D+1        0.00454   0.00341   0.00102  -0.00826   0.00656
  69        4D-1        0.01172   0.00554  -0.00128   0.00332   0.00055
  70        4D+2        0.01319  -0.00024  -0.00676   0.00365   0.00188
  71        4D-2       -0.00920  -0.01044  -0.00505  -0.00582  -0.00061
  72 4   O  1S         -0.00845   0.00262  -0.00470  -0.01030   0.00913
  73        2S          0.01530  -0.00615   0.01309   0.02450  -0.02266
  74        2PX        -0.06831   0.04250  -0.02074   0.01826   0.04731
  75        2PY         0.10672  -0.19912   0.19287   0.09763  -0.00487
  76        2PZ         0.02578  -0.15272   0.13335   0.01467  -0.02018
  77        3S          0.06679  -0.03194   0.02992   0.05669  -0.05675
  78        3PX        -0.05963   0.02743  -0.01206   0.01972   0.04449
  79        3PY         0.08390  -0.16118   0.14078   0.07016  -0.00525
  80        3PZ         0.01904  -0.11978   0.09663   0.01797  -0.01424
  81        4D 0        0.00027  -0.00643   0.00265   0.00205   0.00078
  82        4D+1       -0.00510   0.00137  -0.00100   0.00020  -0.00456
  83        4D-1        0.00461  -0.00476   0.00496   0.00398   0.00196
  84        4D+2        0.00126  -0.00088   0.00375   0.00198   0.00045
  85        4D-2        0.00172   0.00201  -0.00025  -0.00061   0.00114
  86 5   H  1S         -0.03142   0.00130  -0.00710  -0.02539  -0.00460
  87        2S         -0.03417  -0.00736   0.00933  -0.03384   0.01525
  88        3PX        -0.00218   0.00191  -0.00078   0.00086   0.00113
  89        3PY         0.00183  -0.00674   0.00706   0.00223  -0.00059
  90        3PZ         0.00307  -0.00467   0.00379   0.00250   0.00041
  91 6   H  1S          0.00186   0.02192  -0.01537  -0.02773  -0.00441
  92        2S          0.00585   0.07104  -0.00134  -0.03691  -0.02312
  93        3PX         0.00412  -0.00585   0.01272   0.00474   0.00079
  94        3PY        -0.00721   0.01905  -0.01344  -0.00965   0.00001
  95        3PZ        -0.00061   0.00086  -0.00325   0.00761   0.00099
                          21        22        23        24        25
                           V         V         V         V         V
     Eigenvalues --    -0.07064  -0.05805  -0.01344   0.00218   0.01350
   1 1   Ti 1S         -0.00544   0.04139  -0.00670   0.02757  -0.02302
   2        2S         -0.01030   0.09544  -0.01546   0.06477  -0.05732
   3        3S         -0.02652   0.09697  -0.01903   0.06255  -0.03671
   4        4S          0.07782  -0.15263   0.00174  -0.11119  -0.00075
   5        5S          0.14495  -0.16123  -0.06061  -0.48108   0.45753
   6        6S          0.06528  -0.10850   0.50417   0.92063  -0.61348
   7        7PX        -0.00544  -0.00483   0.00754  -0.01476   0.00074
   8        7PY         0.01286   0.00084   0.00447  -0.00956   0.00231
   9        7PZ         0.01158   0.00252  -0.00335   0.00089  -0.00067
  10        8PX        -0.04119  -0.03574   0.05664  -0.11114   0.00566
[...]
          (Kelvin)           1014.16  1379.47  1523.07  1935.67  2779.73
                             5601.06
 
 Zero-point correction=                           0.027149 (Hartree/Particle)
 Thermal correction to Energy=                    0.031904
 Thermal correction to Enthalpy=                  0.032848
 Thermal correction to Gibbs Free Energy=        -0.001135
 Sum of electronic and zero-point Energies=           -285.186136
 Sum of electronic and thermal Energies=              -285.181381
 Sum of electronic and thermal Enthalpies=            -285.180437
 Sum of electronic and thermal Free Energies=         -285.214420
 
                     E (Thermal)             CV                S
                      KCal/Mol        Cal/Mol-Kelvin    Cal/Mol-Kelvin
 Total                   20.020             14.803             71.523
 Electronic               0.000              0.000              0.000
 Translational            0.889              2.981             39.656
 Rotational               0.889              2.981             25.101
 Vibrational             18.243              8.841              6.766
 Vibration     1          0.611              1.927              3.011
 Vibration     2          0.691              1.678              1.429
 Vibration     3          0.789              1.411              0.868
 Vibration     4          0.919              1.110              0.517
 Vibration     5          0.969              1.010              0.432
                       Q            Log10(Q)             Ln(Q)
 Total Bot       0.332720D+01          0.522078          1.202130
 Total V=0       0.102272D+14         13.009758         29.956076
 Vib (Bot)       0.127892D-11        -11.893157        -27.385005
 Vib (Bot)    1  0.162330D+01          0.210399          0.484461
 Vib (Bot)    2  0.639465D+00         -0.194183         -0.447124
 Vib (Bot)    3  0.408922D+00         -0.388360         -0.894232
 Vib (Bot)    4  0.274822D+00         -0.560948         -1.291631
 Vib (Bot)    5  0.242020D+00         -0.616149         -1.418736
 Vib (V=0)       0.393118D+01          0.594523          1.368940
 Vib (V=0)    1  0.219856D+01          0.342138          0.787802
 Vib (V=0)    2  0.131174D+01          0.117846          0.271351
 Vib (V=0)    3  0.114592D+01          0.059156          0.136211
 Vib (V=0)    4  0.107055D+01          0.029607          0.068172
 Vib (V=0)    5  0.105549D+01          0.023456          0.054009
 Electronic      0.100000D+01          0.000000          0.000000
 Translational   0.381023D+08          7.580951         17.455784
 Rotational      0.682786D+05          4.834284         11.131351
 
                                                              Frequency
                                                             IR Spectrum
 
     3                                                               1                   1        1                                  
     8                                                               9                   3        0  9        7  65    4   2    1    
     9                                                               3                   4        5  5        0  16    2   9    2    
     3                                                               2                   5        9  9        5  04    7   8    6    
 
     X                                                               X                   X        X  X        X  XX    X   X    X    
     X                                                               X                   X        X  X        X  XX    X   X    X    
     X                                                               X                   X        X  X        X  XX    X        X    
     X                                                               X                   X        X  X        X  XX    X             
     X                                                               X                   X        X  X        X  XX    X             
     X                                                               X                            X  X        X  XX    X             
     X                                                                                            X  X        X  XX    X             
     X                                                                                            X  X        X   X    X             
     X                                                                                            X  X        X   X    X             
                                                                                                  X  X        X   X    X             
                                                                                                  X  X            X                  
                                                                                                  X  X            X                  
                                                                                                  X  X                               
                                                                                                  X  X                               
                                                                                                  X  X                               
                                                                                                  X  X                               
                                                                                                  X  X                               
                                                                                                  X  X                               
                                                                                                  X  X                               
                                                                                                     X                               
 
 ***** Axes restored to original set *****
 -------------------------------------------------------------------
 Center     Atomic                   Forces (Hartrees/Bohr)
 Number     Number              X              Y              Z
 -------------------------------------------------------------------
      1       22          -0.000020324   -0.000066709    0.000059870
      2        8           0.000018488    0.000089890   -0.000063718
      3        8          -0.000005424   -0.000015274   -0.000008012
      4        8           0.000033423   -0.000011118   -0.000003345
      5        1          -0.000004921    0.000001360   -0.000002235
      6        1          -0.000021241    0.000001850    0.000017440
 -------------------------------------------------------------------
 Cartesian Forces:  Max     0.000089890 RMS     0.000035977
 Z-matrix is all fixed cartesians, so copy forces.
 Force constants in Cartesian coordinates: 
                1             2             3             4             5 
      1  0.287821D+00
      2  0.215801D+00  0.475940D+00
      3  0.943902D-01 -0.135948D-01  0.337294D+00
      4 -0.371552D-01 -0.152806D-01  0.103086D-01  0.593132D-01
      5 -0.274122D-01 -0.217282D+00  0.171492D+00 -0.361932D-02  0.275368D+00
      6  0.252404D-03  0.145724D+00 -0.167815D+00  0.101829D-01 -0.174050D+00
      7 -0.151190D+00 -0.164755D+00 -0.142841D+00 -0.147305D-02 -0.178982D-01
      8 -0.169228D+00 -0.239515D+00 -0.166697D+00 -0.124191D-01 -0.223884D-01
      9 -0.129432D+00 -0.139998D+00 -0.155917D+00  0.332525D-02 -0.130727D-01
     10 -0.923216D-01  0.199274D-01  0.169495D-02 -0.413674D-01  0.326110D-01
     11  0.285438D-01 -0.520361D-01  0.224479D-02  0.741203D-01  0.362468D-02
     12  0.766351D-02  0.587667D-02 -0.191107D-01 -0.369999D-01  0.492743D-02
     13 -0.114032D-01  0.111613D-01  0.780814D-02 -0.124714D-02 -0.652611D-03
     14 -0.755090D-03  0.267013D-02  0.379125D-02  0.532690D-02  0.100888D-02
     15 -0.181140D-02  0.509993D-03  0.470704D-03 -0.774100D-02  0.248842D-02
     16  0.424932D-02 -0.668542D-01  0.286389D-01  0.219296D-01  0.169713D-01
     17 -0.469494D-01  0.302229D-01  0.276286D-02 -0.481282D-01 -0.403309D-01
     18  0.289370D-01  0.148275D-02  0.507715D-02  0.209242D-01  0.821469D-02
                6             7             8             9            10 
      6  0.152531D+00
      7  0.205220D-01  0.151226D+00
      8  0.118220D-01  0.187385D+00  0.260006D+00
      9  0.322551D-01  0.125881D+00  0.153436D+00  0.122178D+00
     10 -0.135469D-01 -0.539174D-02 -0.151741D-01 -0.435685D-02  0.319994D+00
     11 -0.110484D-02 -0.352859D-02  0.127482D-01  0.577964D-02 -0.222435D+00
     12  0.207950D-01 -0.388205D-02  0.110129D-02  0.123734D-02 -0.154143D+00
     13 -0.174041D-02  0.321736D-02 -0.170533D-02 -0.159798D-02 -0.145504D+00
     14  0.273375D-02 -0.298992D-03 -0.311783D-02 -0.142639D-02  0.160582D+00
     15 -0.342258D-02 -0.336481D-03 -0.248690D-03 -0.112321D-02  0.179698D+00
     16 -0.156700D-01  0.361160D-02  0.111420D-01  0.618017D-02 -0.354098D-01
     17  0.148757D-01 -0.903895D-03 -0.773316D-02 -0.471860D-02  0.244878D-01
     18 -0.343440D-01  0.656296D-03  0.585578D-03  0.136883D-02 -0.934682D-02
               11            12            13            14            15 
     11  0.272069D+00
     12  0.163226D+00  0.284965D+00
     13  0.156301D+00  0.158066D+00  0.159331D+00
     14 -0.200793D+00 -0.174800D+00 -0.166938D+00  0.204359D+00
     15 -0.192720D+00 -0.224337D+00 -0.169246D+00  0.187871D+00  0.215191D+00
     16 -0.330016D-01  0.292948D-01 -0.439429D-02  0.208239D-02 -0.563053D-03
     17 -0.356126D-01 -0.331609D-03  0.183359D-02 -0.412786D-02  0.209916D-02
     18  0.225744D-01 -0.635493D-01  0.671018D-02 -0.181700D-01  0.132215D-01
               16            17            18 
     16  0.100135D-01
     17  0.696600D-01  0.575816D-01
     18 -0.478809D-01 -0.146875D-01  0.782259D-01
 Leave Link  716 at Wed Oct 26 17:24:45 2016, MaxMem= 3370123264 cpu:       0.3
 (Enter /opt/qcapps/g09/l103.exe)

 GradGradGradGradGradGradGradGradGradGradGradGradGradGradGradGradGradGrad
 Berny optimization.
 Search for a local minimum.
 Step number   1 out of a maximum of    2
 All quantities printed in internal units (Hartrees-Bohrs-Radians)
 Second derivative matrix not updated -- analytic derivatives used.
 The second derivative matrix:
                          X1        Y1        Z1        X2        Y2
           X1           0.28782
           Y1           0.21580   0.47594
           Z1           0.09439  -0.01359   0.33729
           X2          -0.03716  -0.01528   0.01031   0.05931
           Y2          -0.02741  -0.21728   0.17149  -0.00362   0.27537
           Z2           0.00025   0.14572  -0.16782   0.01018  -0.17405
           X3          -0.15119  -0.16475  -0.14284  -0.00147  -0.01790
           Y3          -0.16923  -0.23952  -0.16670  -0.01242  -0.02239
           Z3          -0.12943  -0.14000  -0.15592   0.00333  -0.01307
           X4          -0.09232   0.01993   0.00169  -0.04137   0.03261
           Y4           0.02854  -0.05204   0.00224   0.07412   0.00362
           Z4           0.00766   0.00588  -0.01911  -0.03700   0.00493
           X5          -0.01140   0.01116   0.00781  -0.00125  -0.00065
           Y5          -0.00076   0.00267   0.00379   0.00533   0.00101
           Z5          -0.00181   0.00051   0.00047  -0.00774   0.00249
           X6           0.00425  -0.06685   0.02864   0.02193   0.01697
           Y6          -0.04695   0.03022   0.00276  -0.04813  -0.04033
           Z6           0.02894   0.00148   0.00508   0.02092   0.00821
                          Z2        X3        Y3        Z3        X4
           Z2           0.15253
           X3           0.02052   0.15123
           Y3           0.01182   0.18738   0.26001
           Z3           0.03226   0.12588   0.15344   0.12218
           X4          -0.01355  -0.00539  -0.01517  -0.00436   0.31999
           Y4          -0.00110  -0.00353   0.01275   0.00578  -0.22243
           Z4           0.02080  -0.00388   0.00110   0.00124  -0.15414
           X5          -0.00174   0.00322  -0.00171  -0.00160  -0.14550
           Y5           0.00273  -0.00030  -0.00312  -0.00143   0.16058
           Z5          -0.00342  -0.00034  -0.00025  -0.00112   0.17970
           X6          -0.01567   0.00361   0.01114   0.00618  -0.03541
           Y6           0.01488  -0.00090  -0.00773  -0.00472   0.02449
           Z6          -0.03434   0.00066   0.00059   0.00137  -0.00935
                          Y4        Z4        X5        Y5        Z5
           Y4           0.27207
           Z4           0.16323   0.28496
           X5           0.15630   0.15807   0.15933
           Y5          -0.20079  -0.17480  -0.16694   0.20436
           Z5          -0.19272  -0.22434  -0.16925   0.18787   0.21519
           X6          -0.03300   0.02929  -0.00439   0.00208  -0.00056
           Y6          -0.03561  -0.00033   0.00183  -0.00413   0.00210
           Z6           0.02257  -0.06355   0.00671  -0.01817   0.01322
                          X6        Y6        Z6
           X6           0.01001
           Y6           0.06966   0.05758
           Z6          -0.04788  -0.01469   0.07823
 ITU=  0
     Eigenvalues ---   -0.09288   0.00447   0.01826   0.04710   0.05782
     Eigenvalues ---    0.11067   0.14170   0.18263   0.25861   0.75949
     Eigenvalues ---    1.01387   1.04264
 Eigenvalue     1 is  -9.29D-02 should be greater than     0.000000 Eigenvector:
                          X6        Y6        X2        Z6        X1
   1                    0.74697  -0.51932  -0.23179   0.20270  -0.14960
                          Y1        X4        Y4        Z4        Y2
   1                    0.12487   0.12471   0.10102  -0.06688  -0.04807
 Angle between quadratic step and forces=  71.75 degrees.
 Linear search not attempted -- first point.
 TrRot=  0.000099 -0.000012  0.000004 -0.000005  0.000034 -0.000005
 Variable       Old X    -DE/DX   Delta X   Delta X   Delta X     New X
                                 (Linear)    (Quad)   (Total)
    X1        1.07439  -0.00002   0.00000  -0.00012  -0.00004   1.07435
    Y1        0.44144  -0.00007   0.00000   0.00008   0.00006   0.44150
    Z1       -0.78897   0.00006   0.00000   0.00008   0.00004  -0.78892
    X2        0.63291   0.00002   0.00000   0.00020   0.00031   0.63322
    Y2       -2.19089   0.00009   0.00000   0.00025   0.00024  -2.19066
    Z2        1.02884  -0.00006   0.00000  -0.00019  -0.00020   1.02863
    X3        2.71818  -0.00001   0.00000   0.00033   0.00047   2.71865
    Y3        2.63737  -0.00002   0.00000  -0.00023  -0.00026   2.63710
    Z3        0.58116  -0.00001   0.00000   0.00004  -0.00005   0.58111
    X4       -2.75507   0.00003   0.00000  -0.00001   0.00008  -2.75499
    Y4        0.31218  -0.00001   0.00000  -0.00015  -0.00014   0.31204
    Z4       -0.47316   0.00000   0.00000   0.00013   0.00022  -0.47293
    X5       -3.68830   0.00000   0.00000  -0.00079  -0.00066  -3.68895
    Y5        1.39571   0.00000   0.00000  -0.00012  -0.00009   1.39562
    Z5        0.65534   0.00000   0.00000  -0.00057  -0.00044   0.65490
    X6       -1.71536  -0.00002   0.00000  -0.00027  -0.00016  -1.71552
    Y6       -1.32193   0.00000   0.00000   0.00020   0.00021  -1.32172
    Z6        0.59284   0.00002   0.00000   0.00036   0.00043   0.59326
         Item               Value     Threshold  Converged?
 Maximum Force            0.000090     0.000450     YES
 RMS     Force            0.000036     0.000300     YES
 Maximum Displacement     0.000659     0.001800     YES
 RMS     Displacement     0.000284     0.001200     YES
 Predicted change in Energy=-3.727980D-08
 Optimization completed.
    -- Stationary point found.
 GradGradGradGradGradGradGradGradGradGradGradGradGradGradGradGradGradGrad

 Leave Link  103 at Wed Oct 26 17:24:45 2016, MaxMem= 3370123264 cpu:       0.8
 (Enter /opt/qcapps/g09/l9999.exe)

 Test job not archived.
 1\1\GINC-TITAN10\Freq\RB3PW91\GenECP\H2O3Ti1\OHNISHI\26-Oct-2016\0\\#P
  B3PW91/GenECP SCFCon=7 SCFCyc=250 GFInput GFOldPrint Pseudo=Read Freq
  Integral=(Grid=UltraFine) Pop=Regular IOp(1/33=0,2/11=1,3/27=8,6/7=3)
 \\Frequency\\0,1\Ti,0.568541,0.233602,-0.417504\O,0.334919,-1.159371,0
 .544438\O,1.438397,1.395634,0.307534\O,-1.457922,0.165198,-0.250383\H,
 -1.951762,0.73858,0.346792\H,-0.907727,-0.699536,0.313716\\Version=AM6
 4L-G09RevC.01\State=1-A\HF=-285.2132852\RMSD=7.281e-08\RMSF=3.598e-05\
 ZeroPoint=0.0271491\Thermal=0.0319039\Dipole=-0.8096437,0.2338413,-1.6
 077017\DipoleDeriv=1.978574,0.5671371,-0.1078035,0.6238055,2.4160943,-
 0.1091861,-0.0692276,-0.100411,1.0950696,-1.0597048,-0.041939,0.074542
 ,-0.0837742,-1.2949374,0.1460368,0.2050689,0.3830044,-0.5823649,-0.962
 7684,-0.4635813,0.0253864,-0.4452909,-1.1823417,-0.0643443,-0.152527,-
 0.3197343,-0.5012964,-1.3547744,0.095711,-0.103426,0.4174656,-0.615322
 9,0.112116,-0.2573175,0.1438296,-0.4977745,0.3775934,-0.0081271,-0.006
 242,-0.0209057,0.2895933,-0.0117657,-0.0055155,-0.0246602,0.2539517,1.
 0210801,-0.1492009,0.1175429,-0.4913003,0.3869144,-0.0728567,0.2795187
 ,-0.0820285,0.2324146\Polar=40.1240404,7.0342478,43.204562,0.7916502,-
 1.9043714,27.3393744\PG=C01 [X(H2O3Ti1)]\NImag=1\\0.28782077,0.2158010
 5,0.47594017,0.09439022,-0.01359480,0.33729446,-0.03715524,-0.01528061
 ,0.01030861,0.05931317,-0.02741220,-0.21728193,0.17149246,-0.00361932,
 0.27536771,0.00025240,0.14572363,-0.16781506,0.01018286,-0.17405027,0.
 15253149,-0.15119005,-0.16475490,-0.14284087,-0.00147305,-0.01789820,0
 .02052197,0.15122588,-0.16922817,-0.23951521,-0.16669655,-0.01241905,-
 0.02238844,0.01182205,0.18738458,0.26000649,-0.12943172,-0.13999824,-0
 .15591658,0.00332525,-0.01307274,0.03225512,0.12588113,0.15343633,0.12
 217850,-0.09232163,0.01992741,0.00169495,-0.04136737,0.03261101,-0.013
 54687,-0.00539174,-0.01517407,-0.00435685,0.31999440,0.02854378,-0.052
 03607,0.00224479,0.07412030,0.00362468,-0.00110484,-0.00352859,0.01274
 815,0.00577964,-0.22243454,0.27206853,0.00766351,0.00587667,-0.0191106
 8,-0.03699994,0.00492743,0.02079504,-0.00388205,0.00110129,0.00123734,
 -0.15414272,0.16322587,0.28496475,-0.01140318,0.01116130,0.00780814,-0
 .00124714,-0.00065261,-0.00174041,0.00321736,-0.00170533,-0.00159798,-
 0.14550388,0.15630061,0.15806644,0.15933113,-0.00075509,0.00267013,0.0
 0379125,0.00532690,0.00100888,0.00273375,-0.00029899,-0.00311783,-0.00
 142639,0.16058236,-0.20079271,-0.17479965,-0.16693756,0.20435939,-0.00
 181140,0.00050999,0.00047070,-0.00774100,0.00248842,-0.00342258,-0.000
 33648,-0.00024869,-0.00112321,0.17969832,-0.19271990,-0.22433714,-0.16
 924638,0.18787101,0.21519075,0.00424932,-0.06685424,0.02863894,0.02192
 963,0.01697132,-0.01566995,0.00361160,0.01114204,0.00618017,-0.0354097
 8,-0.03300156,0.02929476,-0.00439429,0.00208239,-0.00056305,0.01001351
 ,-0.04694937,0.03022291,0.00276286,-0.04812821,-0.04033090,0.01487568,
 -0.00090389,-0.00773316,-0.00471860,0.02448784,-0.03561258,-0.00033161
 ,0.00183359,-0.00412786,0.00209916,0.06966005,0.05758158,0.02893698,0.
 00148275,0.00507715,0.02092422,0.00821469,-0.03434401,0.00065630,0.000
 58558,0.00136883,-0.00934682,0.02257444,-0.06354931,0.00671018,-0.0181
 6997,0.01322147,-0.04788086,-0.01468749,0.07822586\\0.00002032,0.00006
 671,-0.00005987,-0.00001849,-0.00008989,0.00006372,0.00000542,0.000015
 27,0.00000801,-0.00003342,0.00001112,0.00000334,0.00000492,-0.00000136
 ,0.00000223,0.00002124,-0.00000185,-0.00001744\\\@


 IN THE LONG RUN, DIGGING FOR TRUTH HAS ALWAYS PROVED NOT ONLY 
 MORE INTERESTING BUT MORE PROFITABLE THAN DIGGING FOR GOLD.

                             -- GEORGE R. HARRISON
 Job cpu time:  0 days  0 hours  0 minutes 40.3 seconds.
 File lengths (MBytes):  RWF=     12 Int=      0 D2E=      0 Chk=      2 Scr=      1
 Normal termination of Gaussian 09 at Wed Oct 26 17:24:45 2016.
real 41.01
user 38.38
sys 2.01
