 Running on titan11
 Entering Gaussian System, Link 0=g09
 Initial command:
 /opt/qcapps/g09/l1.exe /work/ohnishi/1477468092/Gau-23696.inp -scrdir=/work/ohnishi/1477468092/
 Entering Link 1 = /opt/qcapps/g09/l1.exe PID=     23697.
  
 Copyright (c) 1988,1990,1992,1993,1995,1998,2003,2009,2011,
            Gaussian, Inc.  All Rights Reserved.
  
 This is part of the Gaussian(R) 09 program.  It is based on
 the Gaussian(R) 03 system (copyright 2003, Gaussian, Inc.),
 the Gaussian(R) 98 system (copyright 1998, Gaussian, Inc.),
 the Gaussian(R) 94 system (copyright 1995, Gaussian, Inc.),
 the Gaussian 92(TM) system (copyright 1992, Gaussian, Inc.),
 the Gaussian 90(TM) system (copyright 1990, Gaussian, Inc.),
 the Gaussian 88(TM) system (copyright 1988, Gaussian, Inc.),
 the Gaussian 86(TM) system (copyright 1986, Carnegie Mellon
 University), and the Gaussian 82(TM) system (copyright 1983,
 Carnegie Mellon University). Gaussian is a federally registered
 trademark of Gaussian, Inc.
  
 This software contains proprietary and confidential information,
 including trade secrets, belonging to Gaussian, Inc.
  
 This software is provided under written license and may be
 used, copied, transmitted, or stored only in accord with that
 written license.
  
 The following legend is applicable only to US Government
 contracts under FAR:
  
                    RESTRICTED RIGHTS LEGEND
  
 Use, reproduction and disclosure by the US Government is
 subject to restrictions as set forth in subparagraphs (a)
 and (c) of the Commercial Computer Software - Restricted
 Rights clause in FAR 52.227-19.
  
 Gaussian, Inc.
 340 Quinnipiac St., Bldg. 40, Wallingford CT 06492
  
  
 ---------------------------------------------------------------
 Warning -- This program may not be used in any manner that
 competes with the business of Gaussian, Inc. or will provide
 assistance to any competitor of Gaussian, Inc.  The licensee
 of this program is prohibited from giving any competitor of
 Gaussian, Inc. access to this program.  By using this program,
 the user acknowledges that Gaussian, Inc. is engaged in the
 business of creating and licensing software in the field of
 computational chemistry and represents and warrants to the
 licensee that it is not a competitor of Gaussian, Inc. and that
 it will not use this program in any manner prohibited above.
 ---------------------------------------------------------------
  

 Cite this work as:
 Gaussian 09, Revision C.01,
 M. J. Frisch, G. W. Trucks, H. B. Schlegel, G. E. Scuseria, 
 M. A. Robb, J. R. Cheeseman, G. Scalmani, V. Barone, B. Mennucci, 
 G. A. Petersson, H. Nakatsuji, M. Caricato, X. Li, H. P. Hratchian, 
 A. F. Izmaylov, J. Bloino, G. Zheng, J. L. Sonnenberg, M. Hada, 
 M. Ehara, K. Toyota, R. Fukuda, J. Hasegawa, M. Ishida, T. Nakajima, 
 Y. Honda, O. Kitao, H. Nakai, T. Vreven, J. A. Montgomery, Jr., 
 J. E. Peralta, F. Ogliaro, M. Bearpark, J. J. Heyd, E. Brothers, 
 K. N. Kudin, V. N. Staroverov, T. Keith, R. Kobayashi, J. Normand, 
 K. Raghavachari, A. Rendell, J. C. Burant, S. S. Iyengar, J. Tomasi, 
 M. Cossi, N. Rega, J. M. Millam, M. Klene, J. E. Knox, J. B. Cross, 
 V. Bakken, C. Adamo, J. Jaramillo, R. Gomperts, R. E. Stratmann, 
 O. Yazyev, A. J. Austin, R. Cammi, C. Pomelli, J. W. Ochterski, 
 R. L. Martin, K. Morokuma, V. G. Zakrzewski, G. A. Voth, 
 P. Salvador, J. J. Dannenberg, S. Dapprich, A. D. Daniels, 
 O. Farkas, J. B. Foresman, J. V. Ortiz, J. Cioslowski, 
 and D. J. Fox, Gaussian, Inc., Wallingford CT, 2010.
 
 ******************************************
 Gaussian 09:  AM64L-G09RevC.01 23-Sep-2011
                26-Oct-2016 
 ******************************************
 %NprocShared=8
 Will use up to    8 processors via shared memory.
 %Mem=25712MB
 ----------------------------------------------------------------------
 #P B3PW91/GenECP SCFCon=7 SCFCyc=250 GFInput GFOldPrint Pseudo=Read Fr
 eq Integral=(Grid=UltraFine) Pop=Regular IOp(1/33=0,2/11=1,3/27=8,6/7=
 3)
 ----------------------------------------------------------------------
 1/10=4,30=1,38=1/1,3;
 2/11=1,12=2,17=6,18=5,40=1/2;
 3/5=7,11=2,16=1,17=8,24=11,25=1,27=8,30=1,71=2,74=-6,75=-5/1,2,3;
 4//1;
 5/5=2,6=7,7=250,38=5,98=1/2;
 8/6=4,10=90,11=11/1;
 11/6=1,8=1,9=11,15=111,16=1/1,2,10;
 10/6=1/2;
 6/7=3,18=1,28=1/1;
 7/8=1,10=1,25=1/1,2,3,16;
 1/10=4,30=1/3;
 99//99;
 Leave Link    1 at Wed Oct 26 16:48:12 2016, MaxMem= 3370123264 cpu:       1.1
 (Enter /opt/qcapps/g09/l101.exe)
 ---------
 Frequency
 ---------
 Charge =  0 Multiplicity = 1
 Symbolic Z-Matrix:
 Ti                   -0.00124   0.04971   0.00026 
 O                     0.15336   1.65374  -0.00025 
 O                    -1.71879  -0.58123  -0.0002 
 H                    -2.06551  -1.47826  -0.00038 
 O                     1.52208  -0.9428   -0.00015 
 H                     2.43968  -0.65296  -0.00054 
 
 NAtoms=      6 NQM=        0 NQMF=       0 NMMI=      6 NMMIF=      0
                NMic=       0 NMicF=      0.
                    Isotopes and Nuclear Properties:
 (Nuclear quadrupole moments (NQMom) in fm**2, nuclear magnetic moments (NMagM)
  in nuclear magnetons)

  Atom         1           2           3           4           5           6
 IAtWgt=          48          16          16           1          16           1
 AtmWgt=  47.9479467  15.9949146  15.9949146   1.0078250  15.9949146   1.0078250
 NucSpn=           0           0           0           1           0           1
 AtZEff=   0.0000000   0.0000000   0.0000000   0.0000000   0.0000000   0.0000000
 NQMom=    0.0000000   0.0000000   0.0000000   0.0000000   0.0000000   0.0000000
 NMagM=    0.0000000   0.0000000   0.0000000   2.7928460   0.0000000   2.7928460
 Leave Link  101 at Wed Oct 26 16:48:13 2016, MaxMem= 3370123264 cpu:       0.5
 (Enter /opt/qcapps/g09/l103.exe)

 GradGradGradGradGradGradGradGradGradGradGradGradGradGradGradGradGradGrad
 Berny optimization.
 Initialization pass.
 Trust Radius=3.00D-01 FncErr=1.00D-07 GrdErr=1.00D-07
 Number of steps in this run=      2 maximum allowed number of steps=      2.
 GradGradGradGradGradGradGradGradGradGradGradGradGradGradGradGradGradGrad

 Leave Link  103 at Wed Oct 26 16:48:13 2016, MaxMem= 3370123264 cpu:       0.2
 (Enter /opt/qcapps/g09/l202.exe)
                          Input orientation:                          
 ---------------------------------------------------------------------
 Center     Atomic      Atomic             Coordinates (Angstroms)
 Number     Number       Type             X           Y           Z
 ---------------------------------------------------------------------
      1         22           0       -0.001242    0.049708    0.000259
      2          8           0        0.153363    1.653741   -0.000247
      3          8           0       -1.718794   -0.581233   -0.000197
      4          1           0       -2.065509   -1.478257   -0.000380
      5          8           0        1.522076   -0.942802   -0.000153
      6          1           0        2.439679   -0.652962   -0.000544
 ---------------------------------------------------------------------
                    Distance matrix (angstroms):
                    1          2          3          4          5
     1  Ti   0.000000
     2  O    1.611467   0.000000
     3  O    1.829774   2.915490   0.000000
     4  H    2.568244   3.838334   0.961698   0.000000
     5  O    1.818124   2.935202   3.260977   3.627324   0.000000
     6  H    2.540047   3.247787   4.159092   4.580156   0.962290
                    6
     6  H    0.000000
 Stoichiometry    H2O3Ti
 Framework group  C1[X(H2O3Ti)]
 Deg. of freedom    12
 Full point group                 C1      NOp   1
 Largest Abelian subgroup         C1      NOp   1
 Largest concise Abelian subgroup C1      NOp   1
                         Standard orientation:                         
 ---------------------------------------------------------------------
 Center     Atomic      Atomic             Coordinates (Angstroms)
 Number     Number       Type             X           Y           Z
 ---------------------------------------------------------------------
      1         22           0        0.001242    0.049708   -0.000259
      2          8           0       -0.153362    1.653741    0.000247
      3          8           0        1.718794   -0.581234    0.000197
      4          1           0        2.065508   -1.478259    0.000380
      5          8           0       -1.522077   -0.942801    0.000153
      6          1           0       -2.439679   -0.652960    0.000544
 ---------------------------------------------------------------------
 Rotational constants (GHZ):      7.6584768      5.3167956      3.1381660
 Leave Link  202 at Wed Oct 26 16:48:13 2016, MaxMem= 3370123264 cpu:       0.0
 (Enter /opt/qcapps/g09/l301.exe)
 General basis read from cards:  (5D, 7F)
 Centers:   1
 SDDAll
 ****
 Centers:   2  3  5  4  6
 6-31G(d,p)
 ****
 ======================================================================================================
                                       Pseudopotential Parameters
 ======================================================================================================
  Center     Atomic      Valence      Angular      Power
  Number     Number     Electrons     Momentum     of R      Exponent        Coefficient   SO-Coeffient
 ======================================================================================================
    1         22           12
                                      F and up 
                                                     2        1.0000000        0.00000000    0.00000000
                                      S - F
                                                     2       13.0100000      158.24159300    0.00000000
                                                     2        5.8620000       17.51182400    0.00000000
                                      P - F
                                                     2       12.4600000       95.23512700    0.00000000
                                                     2        5.2170000       10.04785600    0.00000000
                                      D - F
                                                     2       15.3500000      -17.56886100    0.00000000
                                                     2        4.9800000       -0.58725600    0.00000000
    2          8
                                   No pseudopotential on this center.
    3          8
                                   No pseudopotential on this center.
    4          1
                                   No pseudopotential on this center.
    5          8
                                   No pseudopotential on this center.
    6          1
                                   No pseudopotential on this center.
 ======================================================================================================
 Ernie: Thresh=  0.10000D-02 Tol=  0.10000D-05 Strict=F.
 AO basis set in the form of general basis input (Overlap normalization):
      1 0
 S   3 1.00       0.000000000000
      0.1078036500D+02  0.1783892477D+01
      0.9717013000D+01 -0.2000689535D+01
      0.4507755000D+01 -0.7563332022D+00
 S   1 1.00       0.000000000000
      0.1246708000D+01  0.1000000000D+01
 S   1 1.00       0.000000000000
      0.5087070000D+00  0.1000000000D+01
 S   1 1.00       0.000000000000
      0.7343800000D-01  0.1000000000D+01
 S   1 1.00       0.000000000000
      0.3004800000D-01  0.1000000000D+01
 S   1 1.00       0.000000000000
      0.1000000000D-01  0.1000000000D+01
 P   2 1.00       0.000000000000
      0.1756638100D+02  0.8860101480D-01
      0.7705844000D+01 -0.1070746179D+01
 P   2 1.00       0.000000000000
      0.3329138000D+01  0.2001088977D+00
      0.1308104000D+01  0.8379855716D+00
 P   1 1.00       0.000000000000
      0.4544820000D+00  0.1000000000D+01
 P   1 1.00       0.000000000000
      0.7177200000D-01  0.1000000000D+01
 P   1 1.00       0.000000000000
      0.2378400000D-01  0.1000000000D+01
 D   4 1.00       0.000000000000
      0.1951919400D+02  0.3581400317D-01
      0.5864613000D+01  0.1723730152D+00
      0.1928038000D+01  0.4251360376D+00
      0.6065630000D+00  0.6025950533D+00
 D   1 1.00       0.000000000000
      0.1639610000D+00  0.1000000000D+01
 D   1 1.00       0.000000000000
      0.5000000000D-01  0.1000000000D+01
 F   1 1.00       0.000000000000
      0.5000000000D+00  0.1000000000D+01
 ****
      2 0
 S   6 1.00       0.000000000000
      0.5484671660D+04  0.1831074430D-02
      0.8252349460D+03  0.1395017220D-01
      0.1880469580D+03  0.6844507810D-01
      0.5296450000D+02  0.2327143360D+00
      0.1689757040D+02  0.4701928980D+00
      0.5799635340D+01  0.3585208530D+00
 SP   3 1.00       0.000000000000
      0.1553961625D+02 -0.1107775495D+00  0.7087426823D-01
      0.3599933586D+01 -0.1480262627D+00  0.3397528391D+00
      0.1013761750D+01  0.1130767015D+01  0.7271585773D+00
 SP   1 1.00       0.000000000000
      0.2700058226D+00  0.1000000000D+01  0.1000000000D+01
 D   1 1.00       0.000000000000
      0.8000000000D+00  0.1000000000D+01
 ****
      3 0
 S   6 1.00       0.000000000000
      0.5484671660D+04  0.1831074430D-02
      0.8252349460D+03  0.1395017220D-01
      0.1880469580D+03  0.6844507810D-01
      0.5296450000D+02  0.2327143360D+00
      0.1689757040D+02  0.4701928980D+00
      0.5799635340D+01  0.3585208530D+00
 SP   3 1.00       0.000000000000
      0.1553961625D+02 -0.1107775495D+00  0.7087426823D-01
      0.3599933586D+01 -0.1480262627D+00  0.3397528391D+00
      0.1013761750D+01  0.1130767015D+01  0.7271585773D+00
 SP   1 1.00       0.000000000000
      0.2700058226D+00  0.1000000000D+01  0.1000000000D+01
 D   1 1.00       0.000000000000
      0.8000000000D+00  0.1000000000D+01
 ****
      4 0
 S   3 1.00       0.000000000000
      0.1873113696D+02  0.3349460434D-01
      0.2825394365D+01  0.2347269535D+00
      0.6401216923D+00  0.8137573261D+00
 S   1 1.00       0.000000000000
      0.1612777588D+00  0.1000000000D+01
 P   1 1.00       0.000000000000
      0.1100000000D+01  0.1000000000D+01
 ****
      5 0
 S   6 1.00       0.000000000000
      0.5484671660D+04  0.1831074430D-02
      0.8252349460D+03  0.1395017220D-01
      0.1880469580D+03  0.6844507810D-01
      0.5296450000D+02  0.2327143360D+00
      0.1689757040D+02  0.4701928980D+00
      0.5799635340D+01  0.3585208530D+00
 SP   3 1.00       0.000000000000
      0.1553961625D+02 -0.1107775495D+00  0.7087426823D-01
      0.3599933586D+01 -0.1480262627D+00  0.3397528391D+00
      0.1013761750D+01  0.1130767015D+01  0.7271585773D+00
 SP   1 1.00       0.000000000000
      0.2700058226D+00  0.1000000000D+01  0.1000000000D+01
 D   1 1.00       0.000000000000
      0.8000000000D+00  0.1000000000D+01
 ****
      6 0
 S   3 1.00       0.000000000000
      0.1873113696D+02  0.3349460434D-01
      0.2825394365D+01  0.2347269535D+00
      0.6401216923D+00  0.8137573261D+00
 S   1 1.00       0.000000000000
      0.1612777588D+00  0.1000000000D+01
 P   1 1.00       0.000000000000
      0.1100000000D+01  0.1000000000D+01
 ****

 ***********************************************************************************************************************************
 *             ATOMIC CENTER             *        ATOMIC ORBITAL       *                     GAUSSIAN FUNCTIONS                    *
 ***********************************************************************************************************************************
 *                                       * FUNCTION    SHELL    SCALE  *                                                           *
 *    ATOM   X-COORD  Y-COORD  Z-COORD   *  NUMBER     TYPE     FACTOR *  EXPONENT    S-COEF      P-COEF      D-COEF      F-COEF   *
 ***********************************************************************************************************************************
 *     Ti     0.00235  0.09393 -0.00049                                                                                            *
+                                                1   S           1.00                                                               
+                                                                      0.107804D+020.756404D+010.000000D+000.000000D+000.000000D+00 
 *                                                                     0.971701D+01-.784765D+010.000000D+000.000000D+000.000000D+00*
 *                                                                     0.450776D+01-.166761D+010.000000D+000.000000D+000.000000D+00*
 *                                               2   S           1.00                                                              *
+                                                                      0.124671D+010.840879D+000.000000D+000.000000D+000.000000D+00 
 *                                               3   S           1.00                                                              *
+                                                                      0.508707D+000.429300D+000.000000D+000.000000D+000.000000D+00 
 *                                               4   S           1.00                                                              *
+                                                                      0.734380D-010.100543D+000.000000D+000.000000D+000.000000D+00 
 *                                               5   S           1.00                                                              *
+                                                                      0.300480D-010.514365D-010.000000D+000.000000D+000.000000D+00 
 *                                               6   S           1.00                                                              *
+                                                                      0.100000D-010.225377D-010.000000D+000.000000D+000.000000D+00 
 *                                           7-  9   P           1.00                                                              *
+                                                                      0.175664D+020.000000D+000.454184D+010.000000D+000.000000D+00 
 *                                                                     0.770584D+010.000000D+00-.195953D+020.000000D+000.000000D+00*
 *                                          10- 12   P           1.00                                                              *
+                                                                      0.332914D+010.000000D+000.128269D+010.000000D+000.000000D+00 
 *                                                                     0.130810D+010.000000D+000.167101D+010.000000D+000.000000D+00*
 *                                          13- 15   P           1.00                                                              *
+                                                                      0.454482D+000.000000D+000.531907D+000.000000D+000.000000D+00 
 *                                          16- 18   P           1.00                                                              *
+                                                                      0.717720D-010.000000D+000.529522D-010.000000D+000.000000D+00 
 *                                          19- 21   P           1.00                                                              *
+                                                                      0.237840D-010.000000D+000.133136D-010.000000D+000.000000D+00 
 *                                          22- 26   D           1.00                                                              *
+                                                                      0.195192D+020.000000D+000.000000D+000.106849D+020.000000D+00 
 *                                                                     0.586461D+010.000000D+000.000000D+000.627043D+010.000000D+00*
 *                                                                     0.192804D+010.000000D+000.000000D+000.220744D+010.000000D+00*
 *                                                                     0.606563D+000.000000D+000.000000D+000.413493D+000.000000D+00*
 *                                          27- 31   D           1.00                                                              *
+                                                                      0.163961D+000.000000D+000.000000D+000.695353D-010.000000D+00 
 *                                          32- 36   D           1.00                                                              *
+                                                                      0.500000D-010.000000D+000.000000D+000.870176D-020.000000D+00 
 *                                          31- 43   F           1.00                                                              *
+                                                                      0.500000D+000.000000D+000.000000D+000.000000D+000.309483D+00 
 *---------------------------------------------------------------------------------------------------------------------------------*
 *     O     -0.28981  3.12512  0.00047                                                                                            *
+                                               44   S           1.00                                                               
+                                                                      0.548467D+040.831724D+000.000000D+000.000000D+000.000000D+00 
 *                                                                     0.825235D+030.153082D+010.000000D+000.000000D+000.000000D+00*
 *                                                                     0.188047D+030.247715D+010.000000D+000.000000D+000.000000D+00*
 *                                                                     0.529645D+020.325628D+010.000000D+000.000000D+000.000000D+00*
 *                                                                     0.168976D+020.279289D+010.000000D+000.000000D+000.000000D+00*
 *                                                                     0.579964D+010.954938D+000.000000D+000.000000D+000.000000D+00*
 *                                          45- 48   SP          1.00                                                              *
+                                                                      0.155396D+02-.617934D+000.311694D+010.000000D+000.000000D+00 
 *                                                                     0.359993D+01-.275721D+000.240144D+010.000000D+000.000000D+00*
 *                                                                     0.101376D+010.814208D+000.105436D+010.000000D+000.000000D+00*
 *                                          49- 52   SP          1.00                                                              *
+                                                                      0.270006D+000.266956D+000.277432D+000.000000D+000.000000D+00 
 *                                          53- 57   D           1.00                                                              *
+                                                                      0.800000D+000.000000D+000.000000D+000.111382D+010.000000D+00 
 *---------------------------------------------------------------------------------------------------------------------------------*
 *     O      3.24805 -1.09837  0.00037                                                                                            *
+                                               58   S           1.00                                                               
+                                                                      0.548467D+040.831724D+000.000000D+000.000000D+000.000000D+00 
 *                                                                     0.825235D+030.153082D+010.000000D+000.000000D+000.000000D+00*
 *                                                                     0.188047D+030.247715D+010.000000D+000.000000D+000.000000D+00*
 *                                                                     0.529645D+020.325628D+010.000000D+000.000000D+000.000000D+00*
 *                                                                     0.168976D+020.279289D+010.000000D+000.000000D+000.000000D+00*
 *                                                                     0.579964D+010.954938D+000.000000D+000.000000D+000.000000D+00*
 *                                          59- 62   SP          1.00                                                              *
+                                                                      0.155396D+02-.617934D+000.311694D+010.000000D+000.000000D+00 
 *                                                                     0.359993D+01-.275721D+000.240144D+010.000000D+000.000000D+00*
 *                                                                     0.101376D+010.814208D+000.105436D+010.000000D+000.000000D+00*
 *                                          63- 66   SP          1.00                                                              *
+                                                                      0.270006D+000.266956D+000.277432D+000.000000D+000.000000D+00 
 *                                          67- 71   D           1.00                                                              *
+                                                                      0.800000D+000.000000D+000.000000D+000.111382D+010.000000D+00 
 *---------------------------------------------------------------------------------------------------------------------------------*
 *     H      3.90324 -2.79350  0.00072                                                                                            *
+                                               72   S           1.00                                                               
+                                                                      0.187311D+020.214935D+000.000000D+000.000000D+000.000000D+00 
 *                                                                     0.282539D+010.364571D+000.000000D+000.000000D+000.000000D+00*
 *                                                                     0.640122D+000.415051D+000.000000D+000.000000D+000.000000D+00*
 *                                              73   S           1.00                                                              *
+                                                                      0.161278D+000.181381D+000.000000D+000.000000D+000.000000D+00 
 *                                          74- 76   P           1.00                                                              *
+                                                                      0.110000D+010.000000D+000.160576D+010.000000D+000.000000D+00 
 *---------------------------------------------------------------------------------------------------------------------------------*
 *     O     -2.87631 -1.78164  0.00029                                                                                            *
+                                               77   S           1.00                                                               
+                                                                      0.548467D+040.831724D+000.000000D+000.000000D+000.000000D+00 
 *                                                                     0.825235D+030.153082D+010.000000D+000.000000D+000.000000D+00*
 *                                                                     0.188047D+030.247715D+010.000000D+000.000000D+000.000000D+00*
 *                                                                     0.529645D+020.325628D+010.000000D+000.000000D+000.000000D+00*
 *                                                                     0.168976D+020.279289D+010.000000D+000.000000D+000.000000D+00*
 *                                                                     0.579964D+010.954938D+000.000000D+000.000000D+000.000000D+00*
 *                                          78- 81   SP          1.00                                                              *
+                                                                      0.155396D+02-.617934D+000.311694D+010.000000D+000.000000D+00 
 *                                                                     0.359993D+01-.275721D+000.240144D+010.000000D+000.000000D+00*
 *                                                                     0.101376D+010.814208D+000.105436D+010.000000D+000.000000D+00*
 *                                          82- 85   SP          1.00                                                              *
+                                                                      0.270006D+000.266956D+000.277432D+000.000000D+000.000000D+00 
 *                                          86- 90   D           1.00                                                              *
+                                                                      0.800000D+000.000000D+000.000000D+000.111382D+010.000000D+00 
 *---------------------------------------------------------------------------------------------------------------------------------*
 *     H     -4.61033 -1.23392  0.00103                                                                                            *
+                                               91   S           1.00                                                               
+                                                                      0.187311D+020.214935D+000.000000D+000.000000D+000.000000D+00 
 *                                                                     0.282539D+010.364571D+000.000000D+000.000000D+000.000000D+00*
 *                                                                     0.640122D+000.415051D+000.000000D+000.000000D+000.000000D+00*
 *                                              92   S           1.00                                                              *
+                                                                      0.161278D+000.181381D+000.000000D+000.000000D+000.000000D+00 
 *                                          93- 95   P           1.00                                                              *
+                                                                      0.110000D+010.000000D+000.160576D+010.000000D+000.000000D+00 
 ***********************************************************************************************************************************
 There are    95 symmetry adapted basis functions of A   symmetry.
 Integral buffers will be    131072 words long.
 Raffenetti 2 integral format.
 Two-electron integral symmetry is turned on.
    95 basis functions,   173 primitive gaussians,   104 cartesian basis functions
    19 alpha electrons       19 beta electrons
       nuclear repulsion energy       139.2508325493 Hartrees.
 IExCor=  408 DFT=T Ex+Corr=B3PW91 ExCW=0 ScaHFX=  0.200000
 ScaDFX=  0.800000  0.720000  1.000000  0.810000 ScalE2=  1.000000  1.000000
 IRadAn=      5 IRanWt=     -1 IRanGd=            0 ICorTp=0
 NAtoms=    6 NActive=    6 NUniq=    6 SFac= 1.00D+00 NAtFMM=   60 NAOKFM=F Big=F
 Leave Link  301 at Wed Oct 26 16:48:13 2016, MaxMem= 3370123264 cpu:       0.6
 (Enter /opt/qcapps/g09/l302.exe)
 NPDir=0 NMtPBC=     1 NCelOv=     1 NCel=       1 NClECP=     1 NCelD=      1
         NCelK=      1 NCelE2=     1 NClLst=     1 CellRange=     0.0.
 One-electron integrals computed using PRISM.
   1 Symmetry operations used in ECPInt.
 ECPInt:  NShTT=     561 NPrTT=    2216 LenC2=     559 LenP2D=    1828.
 LDataN:  DoStor=T MaxTD1= 6 Len=  172
 NBasis=    95 RedAO= T  NBF=    95
 NBsUse=    95 1.00D-06 NBFU=    95
 Precomputing XC quadrature grid using
 IXCGrd= 2 IRadAn=           5 IRanWt=          -1 IRanGd=           0 AccXCQ= 0.00D+00.
 NRdTot=     520 NPtTot=      149042 NUsed=      152773 NTot=      152805
 NSgBfM=   104   104   104   104   104 NAtAll=     6     6.
 Leave Link  302 at Wed Oct 26 16:48:13 2016, MaxMem= 3370123264 cpu:       1.9
 (Enter /opt/qcapps/g09/l303.exe)
 DipDrv:  MaxL=1.
 Leave Link  303 at Wed Oct 26 16:48:13 2016, MaxMem= 3370123264 cpu:       0.3
 (Enter /opt/qcapps/g09/l401.exe)
 Harris functional with IExCor=  408 diagonalized for initial guess.
 ExpMin= 1.00D-02 ExpMax= 5.48D+03 ExpMxC= 8.25D+02 IAcc=3 IRadAn=         5 AccDes= 0.00D+00
 HarFok:  IExCor=  408 AccDes= 0.00D+00 IRadAn=         5 IDoV= 1
 ScaDFX=  1.000000  1.000000  1.000000  1.000000
 FoFCou: FMM=F IPFlag=           0 FMFlag=      100000 FMFlg1=           0
         NFxFlg=           0 DoJE=T BraDBF=F KetDBF=T FulRan=T
         Omega=  0.000000  0.000000  1.000000  0.000000  0.000000 ICntrl=     500 IOpCl=  0
         NMat0=    1 NMatS0=    1 NMatT0=    0 NMatD0=    1 NMtDS0=    0 NMtDT0=    0
         I1Cent=           4 NGrid=           0.
 Petite list used in FoFCou.
 Harris En= -285.556663482282    
 Initial guess orbital symmetries:
       Occupied  (A) (A) (A) (A) (A) (A) (A) (A) (A) (A) (A) (A)
                 (A) (A) (A) (A) (A) (A) (A)
       Virtual   (A) (A) (A) (A) (A) (A) (A) (A) (A) (A) (A) (A)
                 (A) (A) (A) (A) (A) (A) (A) (A) (A) (A) (A) (A)
                 (A) (A) (A) (A) (A) (A) (A) (A) (A) (A) (A) (A)
                 (A) (A) (A) (A) (A) (A) (A) (A) (A) (A) (A) (A)
                 (A) (A) (A) (A) (A) (A) (A) (A) (A) (A) (A) (A)
                 (A) (A) (A) (A) (A) (A) (A) (A) (A) (A) (A) (A)
                 (A) (A) (A) (A)
 The electronic state of the initial guess is 1-A.
 Leave Link  401 at Wed Oct 26 16:48:14 2016, MaxMem= 3370123264 cpu:       5.3
 (Enter /opt/qcapps/g09/l502.exe)
 Closed shell SCF:
 Requested convergence on RMS density matrix=1.00D-07 within 250 cycles.
 Requested convergence on MAX density matrix=1.00D-05.
 Requested convergence on             energy=1.00D-05.
 No special actions if energy rises.
 Using DIIS extrapolation, IDIIS=  1040.
 Integral symmetry usage will be decided dynamically.
       152706 words used for storage of precomputed grid.
 Keep R1 ints in memory in canonical form, NReq=17100166.
 IEnd=      251622 IEndB=      251622 NGot=  3370123264 MDV=  3355037005
 LenX=  3355037005 LenY=  3355025748
 Symmetry not used in FoFDir.
 MinBra= 0 MaxBra= 3 Meth= 1.
 IRaf=       0 NMat=   1 IRICut=       1 DoRegI=T DoRafI=F ISym2E= 0 JSym2E=0.

 Cycle   1  Pass 1  IDiag  1:
 E= -284.684368998214    
 DIIS: error= 6.95D-02 at cycle   1 NSaved=   1.
 NSaved= 1 IEnMin= 1 EnMin= -284.684368998214     IErMin= 1 ErrMin= 6.95D-02
 ErrMax= 6.95D-02 EMaxC= 1.00D-01 BMatC= 7.89D-01 BMatP= 7.89D-01
 IDIUse=3 WtCom= 3.05D-01 WtEn= 6.95D-01
 Coeff-Com:  0.100D+01
 Coeff-En:   0.100D+01
 Coeff:      0.100D+01
 Gap=    -0.222 Goal=   None    Shift=    0.000
 GapD=   -0.222 DampG=0.250 DampE=0.250 DampFc=0.1250 IDamp=-1.
 Damping current iteration by 1.25D-01
 RMSDP=2.67D-02 MaxDP=8.02D-01              OVMax= 8.46D-01

 Cycle   2  Pass 1  IDiag  1:
 E= -284.805984892398     Delta-E=       -0.121615894184 Rises=F Damp=T
 DIIS: error= 2.77D-02 at cycle   2 NSaved=   2.
 NSaved= 2 IEnMin= 2 EnMin= -284.805984892398     IErMin= 2 ErrMin= 2.77D-02
 ErrMax= 2.77D-02 EMaxC= 1.00D-01 BMatC= 1.40D-01 BMatP= 7.89D-01
 IDIUse=3 WtCom= 7.23D-01 WtEn= 2.77D-01
 Coeff-Com: -0.378D+00 0.138D+01
 Coeff-En:   0.300D+00 0.700D+00
 Coeff:     -0.190D+00 0.119D+01
 Gap=    -0.019 Goal=   None    Shift=    0.000
 RMSDP=6.22D-03 MaxDP=1.28D-01 DE=-1.22D-01 OVMax= 8.98D-01

 Cycle   3  Pass 1  IDiag  1:
 E= -285.073063273527     Delta-E=       -0.267078381129 Rises=F Damp=F
 DIIS: error= 4.17D-02 at cycle   3 NSaved=   3.
 NSaved= 3 IEnMin= 3 EnMin= -285.073063273527     IErMin= 2 ErrMin= 2.77D-02
 ErrMax= 4.17D-02 EMaxC= 1.00D-01 BMatC= 2.52D-01 BMatP= 1.40D-01
 IDIUse=2 WtCom= 0.00D+00 WtEn= 1.00D+00
 EnCoef did   100 forward-backward iterations
 Coeff-En:   0.120D+00 0.441D-02 0.876D+00
 Coeff:      0.120D+00 0.441D-02 0.876D+00
 Gap=     0.329 Goal=   None    Shift=    0.000
 RMSDP=1.41D-02 MaxDP=4.65D-01 DE=-2.67D-01 OVMax= 5.30D-01

 Cycle   4  Pass 1  IDiag  1:
 E= -281.442595286600     Delta-E=        3.630467986927 Rises=F Damp=F
 DIIS: error= 2.50D-01 at cycle   4 NSaved=   4.
 NSaved= 4 IEnMin= 3 EnMin= -285.073063273527     IErMin= 2 ErrMin= 2.77D-02
 ErrMax= 2.50D-01 EMaxC= 1.00D-01 BMatC= 6.38D+00 BMatP= 1.40D-01
 IDIUse=2 WtCom= 0.00D+00 WtEn= 1.00D+00
 EnCoef did     3 forward-backward iterations
 Coeff-En:   0.179D+00 0.000D+00 0.732D+00 0.891D-01
 Coeff:      0.179D+00 0.000D+00 0.732D+00 0.891D-01
 Gap=     0.109 Goal=   None    Shift=    0.000
 RMSDP=8.58D-03 MaxDP=3.19D-01 DE= 3.63D+00 OVMax= 3.61D-01

 Cycle   5  Pass 1  IDiag  1:
 E= -285.030177100305     Delta-E=       -3.587581813705 Rises=F Damp=F
 DIIS: error= 6.77D-02 at cycle   5 NSaved=   5.
 NSaved= 5 IEnMin= 3 EnMin= -285.073063273527     IErMin= 2 ErrMin= 2.77D-02
 ErrMax= 6.77D-02 EMaxC= 1.00D-01 BMatC= 3.71D-01 BMatP= 1.40D-01
 IDIUse=2 WtCom= 0.00D+00 WtEn= 1.00D+00
 EnCoef did     3 forward-backward iterations
 Coeff-En:   0.774D-01 0.000D+00 0.467D+00 0.000D+00 0.456D+00
 Coeff:      0.774D-01 0.000D+00 0.467D+00 0.000D+00 0.456D+00
 Gap=     0.244 Goal=   None    Shift=    0.000
 RMSDP=4.46D-03 MaxDP=1.28D-01 DE=-3.59D+00 OVMax= 2.01D-01

 Cycle   6  Pass 1  IDiag  1:
 E= -285.225040383355     Delta-E=       -0.194863283050 Rises=F Damp=F
 DIIS: error= 3.05D-02 at cycle   6 NSaved=   6.
 NSaved= 6 IEnMin= 6 EnMin= -285.225040383355     IErMin= 2 ErrMin= 2.77D-02
 ErrMax= 3.05D-02 EMaxC= 1.00D-01 BMatC= 8.02D-02 BMatP= 1.40D-01
 IDIUse=3 WtCom= 6.95D-01 WtEn= 3.05D-01
 Coeff-Com: -0.662D-01 0.114D+00 0.243D+00-0.391D-01 0.379D+00 0.369D+00
 Coeff-En:   0.000D+00 0.000D+00 0.000D+00 0.000D+00 0.251D+00 0.749D+00
 Coeff:     -0.460D-01 0.789D-01 0.169D+00-0.272D-01 0.340D+00 0.485D+00
 Gap=     0.195 Goal=   None    Shift=    0.000
 RMSDP=2.24D-03 MaxDP=6.77D-02 DE=-1.95D-01 OVMax= 9.73D-02

 Cycle   7  Pass 1  IDiag  1:
 E= -285.272144194720     Delta-E=       -0.047103811364 Rises=F Damp=F
 DIIS: error= 1.28D-02 at cycle   7 NSaved=   7.
 NSaved= 7 IEnMin= 7 EnMin= -285.272144194720     IErMin= 7 ErrMin= 1.28D-02
 ErrMax= 1.28D-02 EMaxC= 1.00D-01 BMatC= 1.70D-02 BMatP= 8.02D-02
 IDIUse=3 WtCom= 8.72D-01 WtEn= 1.28D-01
 Coeff-Com: -0.468D-01 0.107D-01 0.829D-01-0.197D-01 0.192D+00 0.423D+00
 Coeff-Com:  0.358D+00
 Coeff-En:   0.000D+00 0.000D+00 0.000D+00 0.000D+00 0.000D+00 0.249D+00
 Coeff-En:   0.751D+00
 Coeff:     -0.408D-01 0.930D-02 0.723D-01-0.172D-01 0.167D+00 0.400D+00
 Coeff:      0.409D+00
 Gap=     0.197 Goal=   None    Shift=    0.000
 RMSDP=7.81D-04 MaxDP=2.01D-02 DE=-4.71D-02 OVMax= 2.83D-02

 Cycle   8  Pass 1  IDiag  1:
 E= -285.284297740471     Delta-E=       -0.012153545752 Rises=F Damp=F
 DIIS: error= 1.60D-03 at cycle   8 NSaved=   8.
 NSaved= 8 IEnMin= 8 EnMin= -285.284297740471     IErMin= 8 ErrMin= 1.60D-03
 ErrMax= 1.60D-03 EMaxC= 1.00D-01 BMatC= 5.70D-04 BMatP= 1.70D-02
 IDIUse=3 WtCom= 9.84D-01 WtEn= 1.60D-02
 Coeff-Com: -0.392D-01 0.391D-01 0.450D-02-0.158D-02 0.272D-02 0.197D+00
 Coeff-Com:  0.263D+00 0.534D+00
 Coeff-En:   0.000D+00 0.000D+00 0.000D+00 0.000D+00 0.000D+00 0.000D+00
 Coeff-En:   0.000D+00 0.100D+01
 Coeff:     -0.386D-01 0.385D-01 0.443D-02-0.155D-02 0.268D-02 0.194D+00
 Coeff:      0.259D+00 0.541D+00
 Gap=     0.200 Goal=   None    Shift=    0.000
 RMSDP=2.22D-04 MaxDP=5.16D-03 DE=-1.22D-02 OVMax= 9.50D-03

 Cycle   9  Pass 1  IDiag  1:
 E= -285.284548347752     Delta-E=       -0.000250607281 Rises=F Damp=F
 DIIS: error= 1.91D-03 at cycle   9 NSaved=   9.
 NSaved= 9 IEnMin= 9 EnMin= -285.284548347752     IErMin= 8 ErrMin= 1.60D-03
 ErrMax= 1.91D-03 EMaxC= 1.00D-01 BMatC= 2.72D-04 BMatP= 5.70D-04
 IDIUse=3 WtCom= 9.84D-01 WtEn= 1.60D-02
 Coeff-Com: -0.178D-01 0.163D-01 0.647D-03-0.343D-03 0.110D-01 0.348D-01
 Coeff-Com:  0.469D-01 0.132D+00 0.776D+00
 Coeff-En:   0.000D+00 0.000D+00 0.000D+00 0.000D+00 0.000D+00 0.000D+00
 Coeff-En:   0.000D+00 0.328D+00 0.672D+00
 Coeff:     -0.175D-01 0.160D-01 0.637D-03-0.338D-03 0.108D-01 0.342D-01
 Coeff:      0.462D-01 0.136D+00 0.774D+00
 Gap=     0.199 Goal=   None    Shift=    0.000
 RMSDP=6.34D-05 MaxDP=1.52D-03 DE=-2.51D-04 OVMax= 2.72D-03

 Cycle  10  Pass 1  IDiag  1:
 E= -285.284727206041     Delta-E=       -0.000178858289 Rises=F Damp=F
 DIIS: error= 7.03D-04 at cycle  10 NSaved=  10.
 NSaved=10 IEnMin=10 EnMin= -285.284727206041     IErMin=10 ErrMin= 7.03D-04
 ErrMax= 7.03D-04 EMaxC= 1.00D-01 BMatC= 3.71D-05 BMatP= 2.72D-04
 IDIUse=3 WtCom= 9.93D-01 WtEn= 7.03D-03
 Coeff-Com: -0.202D-02 0.118D-02-0.342D-03-0.857D-04 0.634D-02-0.127D-01
 Coeff-Com: -0.153D-01-0.366D-01-0.307D-01 0.109D+01
 Coeff-En:   0.000D+00 0.000D+00 0.000D+00 0.000D+00 0.000D+00 0.000D+00
 Coeff-En:   0.000D+00 0.000D+00 0.000D+00 0.100D+01
 Coeff:     -0.201D-02 0.117D-02-0.340D-03-0.851D-04 0.629D-02-0.126D-01
 Coeff:     -0.152D-01-0.363D-01-0.305D-01 0.109D+01
 Gap=     0.198 Goal=   None    Shift=    0.000
 RMSDP=3.46D-05 MaxDP=8.60D-04 DE=-1.79D-04 OVMax= 1.50D-03

 Cycle  11  Pass 1  IDiag  1:
 E= -285.284754886071     Delta-E=       -0.000027680031 Rises=F Damp=F
 DIIS: error= 3.26D-05 at cycle  11 NSaved=  11.
 NSaved=11 IEnMin=11 EnMin= -285.284754886071     IErMin=11 ErrMin= 3.26D-05
 ErrMax= 3.26D-05 EMaxC= 1.00D-01 BMatC= 1.26D-07 BMatP= 3.71D-05
 IDIUse=1 WtCom= 1.00D+00 WtEn= 0.00D+00
 Coeff-Com:  0.149D-03-0.851D-04-0.397D-03-0.321D-05 0.397D-03-0.202D-02
 Coeff-Com: -0.507D-03-0.952D-02-0.915D-01 0.311D+00 0.792D+00
 Coeff:      0.149D-03-0.851D-04-0.397D-03-0.321D-05 0.397D-03-0.202D-02
 Coeff:     -0.507D-03-0.952D-02-0.915D-01 0.311D+00 0.792D+00
 Gap=     0.198 Goal=   None    Shift=    0.000
 RMSDP=2.22D-06 MaxDP=4.53D-05 DE=-2.77D-05 OVMax= 9.06D-05

 Cycle  12  Pass 1  IDiag  1:
 E= -285.284754979653     Delta-E=       -0.000000093582 Rises=F Damp=F
 DIIS: error= 3.25D-06 at cycle  12 NSaved=  12.
 NSaved=12 IEnMin=12 EnMin= -285.284754979653     IErMin=12 ErrMin= 3.25D-06
 ErrMax= 3.25D-06 EMaxC= 1.00D-01 BMatC= 1.47D-09 BMatP= 1.26D-07
 IDIUse=1 WtCom= 1.00D+00 WtEn= 0.00D+00
 Coeff-Com:  0.609D-04-0.387D-04-0.892D-04-0.282D-05 0.541D-04-0.289D-03
 Coeff-Com:  0.312D-03-0.978D-03-0.108D-01 0.399D-01 0.118D+00 0.854D+00
 Coeff:      0.609D-04-0.387D-04-0.892D-04-0.282D-05 0.541D-04-0.289D-03
 Coeff:      0.312D-03-0.978D-03-0.108D-01 0.399D-01 0.118D+00 0.854D+00
 Gap=     0.198 Goal=   None    Shift=    0.000
 RMSDP=4.14D-07 MaxDP=8.41D-06 DE=-9.36D-08 OVMax= 2.18D-05

 Cycle  13  Pass 1  IDiag  1:
 E= -285.284754980697     Delta-E=       -0.000000001044 Rises=F Damp=F
 DIIS: error= 2.95D-06 at cycle  13 NSaved=  13.
 NSaved=13 IEnMin=13 EnMin= -285.284754980697     IErMin=13 ErrMin= 2.95D-06
 ErrMax= 2.95D-06 EMaxC= 1.00D-01 BMatC= 6.02D-10 BMatP= 1.47D-09
 IDIUse=1 WtCom= 1.00D+00 WtEn= 0.00D+00
 Coeff-Com:  0.118D-04-0.860D-05-0.201D-05 0.466D-06-0.164D-04 0.101D-04
 Coeff-Com:  0.439D-04 0.201D-03 0.244D-02-0.484D-02-0.119D-01 0.164D+00
 Coeff-Com:  0.850D+00
 Coeff:      0.118D-04-0.860D-05-0.201D-05 0.466D-06-0.164D-04 0.101D-04
 Coeff:      0.439D-04 0.201D-03 0.244D-02-0.484D-02-0.119D-01 0.164D+00
 Coeff:      0.850D+00
 Gap=     0.198 Goal=   None    Shift=    0.000
 RMSDP=1.26D-07 MaxDP=3.08D-06 DE=-1.04D-09 OVMax= 4.24D-06

 Cycle  14  Pass 1  IDiag  1:
 E= -285.284754981128     Delta-E=       -0.000000000431 Rises=F Damp=F
 DIIS: error= 8.14D-07 at cycle  14 NSaved=  14.
 NSaved=14 IEnMin=14 EnMin= -285.284754981128     IErMin=14 ErrMin= 8.14D-07
 ErrMax= 8.14D-07 EMaxC= 1.00D-01 BMatC= 5.03D-11 BMatP= 6.02D-10
 IDIUse=1 WtCom= 1.00D+00 WtEn= 0.00D+00
 Coeff-Com: -0.381D-06-0.357D-06 0.603D-05 0.515D-06-0.117D-04 0.241D-04
 Coeff-Com: -0.172D-04 0.155D-03 0.147D-02-0.386D-02-0.108D-01-0.205D-01
 Coeff-Com:  0.200D+00 0.833D+00
 Coeff:     -0.381D-06-0.357D-06 0.603D-05 0.515D-06-0.117D-04 0.241D-04
 Coeff:     -0.172D-04 0.155D-03 0.147D-02-0.386D-02-0.108D-01-0.205D-01
 Coeff:      0.200D+00 0.833D+00
 Gap=     0.198 Goal=   None    Shift=    0.000
 RMSDP=4.70D-08 MaxDP=1.38D-06 DE=-4.31D-10 OVMax= 1.70D-06

 SCF Done:  E(RB3PW91) =  -285.284754981     A.U. after   14 cycles
             Convg  =    0.4704D-07             -V/T =  2.1383
 KE= 2.506282868338D+02 PE=-9.388577535160D+02 EE= 2.636938791518D+02
 Leave Link  502 at Wed Oct 26 16:48:20 2016, MaxMem= 3370123264 cpu:      41.4
 (Enter /opt/qcapps/g09/l801.exe)
 Range of M.O.s used for correlation:     1    95
 NBasis=    95 NAE=    19 NBE=    19 NFC=     0 NFV=     0
 NROrb=     95 NOA=    19 NOB=    19 NVA=    76 NVB=    76
 Leave Link  801 at Wed Oct 26 16:48:20 2016, MaxMem= 3370123264 cpu:       0.3
 (Enter /opt/qcapps/g09/l1101.exe)
 Using compressed storage, NAtomX=     6.
 Will process   7 centers per pass.
   1 Symmetry operations used in ECPInt.
 ECPInt:  NShTT=     561 NPrTT=    2216 LenC2=     559 LenP2D=    1828.
 LDataN:  DoStor=T MaxTD1= 7 Len=  274
 Leave Link 1101 at Wed Oct 26 16:48:20 2016, MaxMem= 3370123264 cpu:       3.3
 (Enter /opt/qcapps/g09/l1102.exe)
 Symmetrizing basis deriv contribution to polar:
 IMax=3 JMax=2 DiffMx= 0.00D+00
 Leave Link 1102 at Wed Oct 26 16:48:20 2016, MaxMem= 3370123264 cpu:       0.3
 (Enter /opt/qcapps/g09/l1110.exe)
 Forming Gx(P) for the SCF density, NAtomX=     6.
 Integral derivatives from FoFDir/FoFCou, PRISM(SPDF).
 Do as many integral derivatives as possible in FoFDir.
 G2DrvN: MDV=    3370123112.
 G2DrvN: will do     7 centers at a time, making    1 passes doing MaxLOS=3.
 Calling FoFCou, ICntrl=  3107 FMM=F I1Cent=   0 AccDes= 0.00D+00.
 FoFCou: FMM=F IPFlag=           0 FMFlag=      100000 FMFlg1=           0
         NFxFlg=           0 DoJE=F BraDBF=F KetDBF=F FulRan=T
         Omega=  0.000000  0.000000  1.000000  0.000000  0.000000 ICntrl=    3107 IOpCl=  0
         NMat0=    1 NMatS0=    1 NMatT0=    0 NMatD0=    1 NMtDS0=    0 NMtDT0=    0
         I1Cent=           0 NGrid=           0.
 Symmetry not used in FoFCou.
 FoFDir/FoFCou used for L=0 through L=3.
 End of G2Drv Frequency-dependent properties file   721 does not exist.
 End of G2Drv Frequency-dependent properties file   722 does not exist.
 Leave Link 1110 at Wed Oct 26 16:48:26 2016, MaxMem= 3370123264 cpu:      42.1
 (Enter /opt/qcapps/g09/l1002.exe)
 Minotr:  Closed shell wavefunction.
          IDoAtm=111111
          Direct CPHF calculation.
          Differentiating once with respect to electric field.
                with respect to dipole field.
          Differentiating once with respect to nuclear coordinates.
          Requested convergence is 1.0D-08 RMS, and 1.0D-07 maximum.
          Secondary convergence is 1.0D-12 RMS, and 1.0D-12 maximum.
          NewPWx=T KeepS1=F KeepF1=F KeepIn=T MapXYZ=F SortEE=F KeepMc=T.
          MDV=    3370123200 using IRadAn=       1.
 Generate precomputed XC quadrature information.
          Keep R1 ints in memory in canonical form, NReq=16851278.
 Symmetry not used in FoFDir.
 MinBra= 0 MaxBra= 3 Meth= 1.
 IRaf=       0 NMat=   1 IRICut=       1 DoRegI=T DoRafI=F ISym2E= 0 JSym2E=0.
          Solving linear equations simultaneously, MaxMat=       0.
          There are    21 degrees of freedom in the 1st order CPHF.  IDoFFX=5.
     18 vectors produced by pass  0 Test12= 6.88D-15 4.76D-09 XBig12= 5.58D+01 3.43D+00.
 AX will form    18 AO Fock derivatives at one time.
     18 vectors produced by pass  1 Test12= 6.88D-15 4.76D-09 XBig12= 9.30D+01 2.94D+00.
     18 vectors produced by pass  2 Test12= 6.88D-15 4.76D-09 XBig12= 3.98D+00 4.17D-01.
     18 vectors produced by pass  3 Test12= 6.88D-15 4.76D-09 XBig12= 2.52D-02 2.97D-02.
     18 vectors produced by pass  4 Test12= 6.88D-15 4.76D-09 XBig12= 1.67D-04 3.92D-03.
     18 vectors produced by pass  5 Test12= 6.88D-15 4.76D-09 XBig12= 6.36D-07 1.75D-04.
     13 vectors produced by pass  6 Test12= 6.88D-15 4.76D-09 XBig12= 2.43D-09 8.60D-06.
      3 vectors produced by pass  7 Test12= 6.88D-15 4.76D-09 XBig12= 3.88D-12 3.95D-07.
      2 vectors produced by pass  8 Test12= 6.88D-15 4.76D-09 XBig12= 5.40D-15 1.34D-08.
 Inverted reduced A of dimension   126 with in-core refinement.
 FullF1:  Do perturbations    1 to     3.
 Isotropic polarizability for W=    0.000000       37.59 Bohr**3.
 End of Minotr Frequency-dependent properties file   721 does not exist.
 End of Minotr Frequency-dependent properties file   722 does not exist.
 Leave Link 1002 at Wed Oct 26 16:48:34 2016, MaxMem= 3370123264 cpu:      66.7
 (Enter /opt/qcapps/g09/l601.exe)
 Copying SCF densities to generalized density rwf, IOpCl= 0 IROHF=0.

 **********************************************************************

            Population analysis using the SCF density.

 **********************************************************************

 Orbital symmetries:
       Occupied  (A) (A) (A) (A) (A) (A) (A) (A) (A) (A) (A) (A)
                 (A) (A) (A) (A) (A) (A) (A)
       Virtual   (A) (A) (A) (A) (A) (A) (A) (A) (A) (A) (A) (A)
                 (A) (A) (A) (A) (A) (A) (A) (A) (A) (A) (A) (A)
                 (A) (A) (A) (A) (A) (A) (A) (A) (A) (A) (A) (A)
                 (A) (A) (A) (A) (A) (A) (A) (A) (A) (A) (A) (A)
                 (A) (A) (A) (A) (A) (A) (A) (A) (A) (A) (A) (A)
                 (A) (A) (A) (A) (A) (A) (A) (A) (A) (A) (A) (A)
                 (A) (A) (A) (A)
 The electronic state is 1-A.
 Alpha  occ. eigenvalues --  -19.14896 -19.13941 -19.11813  -2.49565  -1.53824
 Alpha  occ. eigenvalues --   -1.53068  -1.53035  -0.98432  -0.97155  -0.86823
 Alpha  occ. eigenvalues --   -0.50371  -0.49074  -0.36565  -0.35307  -0.35269
 Alpha  occ. eigenvalues --   -0.34432  -0.32424  -0.32404  -0.30089
 Alpha virt. eigenvalues --   -0.10282  -0.06322  -0.03620  -0.01448   0.00601
 Alpha virt. eigenvalues --    0.01962   0.02025   0.02745   0.03819   0.05317
 Alpha virt. eigenvalues --    0.10717   0.11527   0.12081   0.12713   0.12715
 Alpha virt. eigenvalues --    0.14208   0.18575   0.19023   0.23186   0.23900
 Alpha virt. eigenvalues --    0.24037   0.51506   0.53452   0.54110   0.54213
 Alpha virt. eigenvalues --    0.56630   0.86261   0.88682   0.94076   0.96900
 Alpha virt. eigenvalues --    0.98275   0.99829   1.00608   1.06117   1.08757
 Alpha virt. eigenvalues --    1.18324   1.19241   1.20027   1.24916   1.26612
 Alpha virt. eigenvalues --    1.29374   1.33058   1.34812   1.35734   1.45595
 Alpha virt. eigenvalues --    1.50332   1.51963   1.54932   1.58010   1.63734
 Alpha virt. eigenvalues --    1.67798   1.71533   1.82314   1.89409   1.89564
 Alpha virt. eigenvalues --    1.93289   2.03491   2.10608   2.10792   2.18595
 Alpha virt. eigenvalues --    2.33807   2.34521   2.42201   2.45907   2.62398
 Alpha virt. eigenvalues --    2.64945   2.65565   2.80096   2.85163   2.91717
 Alpha virt. eigenvalues --    3.47250   3.53494  24.21794  24.64585  24.67973
 Alpha virt. eigenvalues --   35.55325
     Molecular Orbital Coefficients:
                           1         2         3         4         5
                           O         O         O         O         O
     Eigenvalues --   -19.14896 -19.13941 -19.11813  -2.49565  -1.53824
   1 1   Ti 1S         -0.00014  -0.00014  -0.00007   0.39599  -0.00916
   2        2S         -0.00074  -0.00072  -0.00069   0.71843  -0.01621
   3        3S          0.00051   0.00049   0.00115   0.51476  -0.01548
   4        4S          0.00592   0.00576   0.00636   0.00713  -0.00164
   5        5S         -0.00223  -0.00210  -0.00231  -0.00359  -0.00055
   6        6S          0.00048   0.00045   0.00051   0.00098   0.00014
   7        7PX         0.00009  -0.00010   0.00000  -0.00015   0.00188
   8        7PY         0.00006   0.00004  -0.00003   0.00162   0.10171
   9        7PZ         0.00000   0.00000   0.00000   0.00000   0.00004
  10        8PX         0.00048  -0.00055   0.00003  -0.00105   0.01273
  11        8PY         0.00031   0.00018  -0.00027   0.01135   0.69238
  12        8PZ         0.00000   0.00000   0.00000   0.00000   0.00029
  13        9PX        -0.00134   0.00151  -0.00019  -0.00012   0.00678
  14        9PY        -0.00084  -0.00042   0.00187   0.00072   0.39398
  15        9PZ         0.00000   0.00000   0.00000  -0.00001   0.00016
  16       10PX        -0.00339   0.00396  -0.00049   0.00005  -0.00084
  17       10PY        -0.00241  -0.00134   0.00461  -0.00039   0.00639
  18       10PZ         0.00000   0.00000   0.00000   0.00000   0.00000
  19       11PX         0.00085  -0.00097   0.00009  -0.00005  -0.00016
  20       11PY         0.00059   0.00040  -0.00107   0.00025  -0.00141
  21       11PZ         0.00000   0.00000   0.00000   0.00000   0.00000
  22       12D 0       -0.00019  -0.00018  -0.00012   0.00633  -0.00690
  23       12D+1        0.00000   0.00000   0.00000   0.00000   0.00000
  24       12D-1        0.00000   0.00000   0.00000   0.00000   0.00001
  25       12D+2        0.00003   0.00010  -0.00015   0.00236  -0.01419
  26       12D-2        0.00016  -0.00011  -0.00003   0.00088  -0.00333
  27       13D 0       -0.00136  -0.00133  -0.00109   0.00145  -0.00021
  28       13D+1        0.00000   0.00000   0.00000   0.00000   0.00000
  29       13D-1        0.00000   0.00000   0.00000   0.00000   0.00000
  30       13D+2        0.00151   0.00167  -0.00135  -0.00152  -0.00401
  31       13D-2        0.00202  -0.00168  -0.00021  -0.00070  -0.00153
  32       14D 0       -0.00004  -0.00007  -0.00021  -0.00036   0.00069
  33       14D+1        0.00000   0.00000   0.00000   0.00000   0.00000
  34       14D-1        0.00000   0.00000   0.00000   0.00000   0.00000
  35       14D+2       -0.00004   0.00056  -0.00078   0.00015   0.00168
  36       14D-2        0.00067  -0.00023  -0.00010   0.00020   0.00117
  37       15F 0        0.00000   0.00000   0.00000   0.00000   0.00000
  38       15F+1        0.00004  -0.00006  -0.00003   0.00005   0.00002
  39       15F-1        0.00004   0.00005   0.00038  -0.00046  -0.00203
  40       15F+2        0.00000   0.00000   0.00000   0.00000   0.00000
  41       15F-2        0.00000   0.00000   0.00000   0.00000   0.00000
  42       15F+3       -0.00009  -0.00011  -0.00014   0.00028   0.00055
  43       15F-3       -0.00021  -0.00029   0.00047  -0.00089  -0.00231
  44 2   O  1S          0.00029   0.00039   0.99513  -0.00639  -0.03487
  45        2S          0.00016   0.00019   0.02870   0.01036   0.07189
  46        2PX         0.00001   0.00002   0.00010   0.00113   0.00621
  47        2PY        -0.00013  -0.00012  -0.00109  -0.01178  -0.05264
  48        2PZ         0.00000   0.00000   0.00000   0.00000  -0.00002
  49        3S          0.00002  -0.00033  -0.01561   0.00953   0.04628
  50        3PX        -0.00029   0.00010  -0.00031   0.00068   0.00169
  51        3PY         0.00046   0.00063   0.00290  -0.00587  -0.01187
  52        3PZ         0.00000   0.00000   0.00000   0.00000   0.00000
  53        4D 0        0.00016   0.00014   0.00021  -0.00195  -0.00334
  54        4D+1        0.00000   0.00000   0.00000   0.00000   0.00000
  55        4D-1        0.00000   0.00000   0.00000   0.00000   0.00000
  56        4D+2       -0.00006  -0.00002   0.00033  -0.00320  -0.00613
  57        4D-2        0.00006  -0.00001   0.00007  -0.00066  -0.00150
  58 3   O  1S          0.00036   0.99505  -0.00038  -0.00260   0.00654
  59        2S          0.00007   0.02877   0.00012   0.00403  -0.01342
  60        2PX        -0.00009  -0.00021  -0.00011  -0.00449   0.01029
  61        2PY         0.00008  -0.00145   0.00009   0.00142   0.00124
  62        2PZ         0.00000   0.00000   0.00000   0.00000   0.00000
  63        3S         -0.00029  -0.01434  -0.00019   0.00545  -0.01107
  64        3PX         0.00050   0.00289   0.00036  -0.00362   0.00389
  65        3PY        -0.00074  -0.00091  -0.00029   0.00190   0.00360
  66        3PZ         0.00000   0.00000   0.00000   0.00000   0.00000
  67        4D 0        0.00005  -0.00030   0.00007  -0.00082   0.00067
  68        4D+1        0.00000   0.00000   0.00000   0.00000   0.00000
  69        4D-1        0.00000   0.00000   0.00000   0.00000   0.00000
  70        4D+2        0.00005  -0.00096   0.00008   0.00104  -0.00160
  71        4D-2        0.00005  -0.00042  -0.00006  -0.00089  -0.00070
  72 4   H  1S         -0.00023  -0.00129  -0.00010   0.00024  -0.00141
  73        2S          0.00009   0.00064   0.00021   0.00042   0.00218
  74        3PX        -0.00002   0.00063  -0.00005   0.00003   0.00025
  75        3PY        -0.00002  -0.00191  -0.00001   0.00002  -0.00049
  76        3PZ         0.00000   0.00000   0.00000   0.00000   0.00000
  77 5   O  1S          0.99505  -0.00036  -0.00029  -0.00276   0.01099
  78        2S          0.02882   0.00005   0.00013   0.00419  -0.02338
  79        2PX        -0.00101   0.00003   0.00010   0.00410  -0.01444
  80        2PY         0.00106   0.00009   0.00012   0.00287  -0.00656
  81        2PZ         0.00000   0.00000   0.00000   0.00000   0.00001
  82        3S         -0.01455  -0.00008  -0.00026   0.00618  -0.01681
  83        3PX        -0.00237  -0.00001  -0.00031   0.00325  -0.00558
  84        3PY        -0.00188  -0.00066  -0.00039   0.00267  -0.00062
  85        3PZ         0.00000   0.00000   0.00000   0.00000   0.00000
  86        4D 0       -0.00028   0.00011   0.00009  -0.00089   0.00077
  87        4D+1        0.00000   0.00000   0.00000   0.00000   0.00000
  88        4D-1        0.00000   0.00000   0.00000   0.00000   0.00000
  89        4D+2        0.00064   0.00016   0.00004   0.00044  -0.00173
  90        4D-2       -0.00084  -0.00002   0.00009   0.00136  -0.00104
  91 6   H  1S         -0.00120   0.00008   0.00002   0.00005  -0.00196
  92        2S          0.00068   0.00005   0.00004   0.00019  -0.00016
  93        3PX        -0.00185  -0.00001   0.00003   0.00000  -0.00052
  94        3PY         0.00070   0.00008   0.00004  -0.00005  -0.00015
  95        3PZ         0.00000   0.00000   0.00000   0.00000   0.00000
                           6         7         8         9        10
                           O         O         O         O         O
     Eigenvalues --    -1.53068  -1.53035  -0.98432  -0.97155  -0.86823
   1 1   Ti 1S          0.00000   0.00135  -0.03708  -0.01275  -0.04724
   2        2S          0.00001   0.00252  -0.08493  -0.02937  -0.11093
   3        3S         -0.00001   0.00221  -0.03848  -0.01280  -0.05251
   4        4S          0.00000  -0.00088  -0.00530  -0.00161   0.00730
   5        5S          0.00000   0.00011   0.01414   0.00539   0.00877
   6        6S          0.00000  -0.00006  -0.00195  -0.00076  -0.00145
   7        7PX        -0.00017   0.10416   0.00648  -0.01875   0.00301
   8        7PY        -0.00004  -0.00146   0.00797   0.00084  -0.02913
   9        7PZ         0.10640   0.00017  -0.00001   0.00000  -0.00001
  10        8PX        -0.00113   0.70915   0.04588  -0.13280   0.02151
  11        8PY        -0.00028  -0.01000   0.05635   0.00595  -0.20840
  12        8PZ         0.72390   0.00115  -0.00004  -0.00001  -0.00006
  13        9PX        -0.00063   0.39639   0.02279  -0.06470   0.01087
  14        9PY        -0.00015  -0.00608   0.02738   0.00323  -0.10401
  15        9PZ         0.40242   0.00064  -0.00002  -0.00001  -0.00003
  16       10PX        -0.00001   0.00733   0.00304  -0.01055   0.00120
  17       10PY         0.00000  -0.00008   0.00378  -0.00024  -0.00791
  18       10PZ         0.00782   0.00001   0.00000   0.00000  -0.00001
  19       11PX         0.00000  -0.00101  -0.00338   0.00939  -0.00069
  20       11PY         0.00000  -0.00002  -0.00417  -0.00086   0.00919
  21       11PZ        -0.00163   0.00000   0.00000   0.00000   0.00000
  22       12D 0       -0.00001   0.00079  -0.03480  -0.01197  -0.05475
  23       12D+1       -0.00045   0.00000  -0.00001   0.00002  -0.00001
  24       12D-1        0.00413   0.00001  -0.00001   0.00000   0.00006
  25       12D+2        0.00000   0.00190   0.02142   0.01336  -0.09750
  26       12D-2        0.00000   0.00154   0.01864  -0.04101  -0.01770
  27       13D 0       -0.00001   0.00044   0.00134   0.00058  -0.00309
  28       13D+1       -0.00012   0.00000   0.00000   0.00000   0.00000
  29       13D-1       -0.00143   0.00000   0.00000   0.00000   0.00001
  30       13D+2        0.00000   0.00105  -0.00036  -0.00477  -0.01204
  31       13D-2        0.00001  -0.00581  -0.00369  -0.00139  -0.00307
  32       14D 0        0.00000   0.00010  -0.00236  -0.00111  -0.00129
  33       14D+1       -0.00001   0.00000   0.00000   0.00000   0.00000
  34       14D-1        0.00034   0.00000   0.00000   0.00000   0.00000
  35       14D+2        0.00000  -0.00096   0.00148   0.00058  -0.00129
  36       14D-2        0.00000   0.00087   0.00052  -0.00148  -0.00090
  37       15F 0        0.00155   0.00000   0.00000   0.00000  -0.00001
  38       15F+1        0.00000  -0.00107   0.00177  -0.00478   0.00085
  39       15F-1        0.00000   0.00000   0.00195   0.00026  -0.00902
  40       15F+2       -0.00007   0.00000   0.00000   0.00000  -0.00001
  41       15F-2        0.00008   0.00000   0.00000   0.00000   0.00000
  42       15F+3        0.00000   0.00091   0.00048   0.00209   0.00351
  43       15F-3        0.00000   0.00088  -0.00879  -0.00275  -0.01107
  44 2   O  1S          0.00000   0.00400  -0.01693  -0.00734  -0.22661
  45        2S          0.00001  -0.00825   0.03512   0.01563   0.50143
  46        2PX        -0.00002   0.00961   0.00217  -0.00483   0.00367
  47        2PY        -0.00001   0.00694  -0.00829  -0.00406  -0.04622
  48        2PZ         0.01104   0.00002  -0.00001   0.00000  -0.00002
  49        3S          0.00000  -0.00532   0.03941   0.01466   0.55045
  50        3PX        -0.00001   0.00559   0.00245  -0.00063   0.00400
  51        3PY         0.00000   0.00184  -0.00869  -0.00312  -0.05075
  52        3PZ         0.00450   0.00001   0.00000   0.00000  -0.00002
  53        4D 0        0.00000   0.00036  -0.00119  -0.00050  -0.00277
  54        4D+1        0.00024   0.00000   0.00000   0.00000   0.00000
  55        4D-1       -0.00260   0.00000   0.00000   0.00000   0.00000
  56        4D+2        0.00000   0.00121  -0.00061  -0.00040  -0.00744
  57        4D-2        0.00000  -0.00260  -0.00034   0.00074  -0.00167
  58 3   O  1S          0.00002  -0.01772  -0.09392  -0.19533   0.01334
  59        2S         -0.00004   0.03738   0.20487   0.42630  -0.03085
  60        2PX         0.00003  -0.02372  -0.00217   0.00659  -0.00882
  61        2PY        -0.00001   0.00803  -0.03593  -0.08708   0.00564
  62        2PZ         0.00513   0.00000   0.00000   0.00001  -0.00001
  63        3S         -0.00003   0.02801   0.20969   0.44441  -0.02938
  64        3PX         0.00001  -0.00695  -0.01611  -0.02617  -0.00466
  65        3PY        -0.00001   0.00267  -0.00672  -0.02332   0.00410
  66        3PZ         0.00289   0.00000   0.00000  -0.00001   0.00000
  67        4D 0        0.00000  -0.00126  -0.00325  -0.00595  -0.00002
  68        4D+1       -0.00147   0.00000   0.00000   0.00000   0.00000
  69        4D-1        0.00042   0.00000   0.00000   0.00000   0.00000
  70        4D+2        0.00000   0.00159   0.00009   0.00109   0.00044
  71        4D-2        0.00000  -0.00158  -0.00388  -0.00604   0.00145
  72 4   H  1S          0.00000   0.00347   0.07150   0.15566  -0.01275
  73        2S          0.00000  -0.00153   0.00860   0.01845  -0.00370
  74        3PX         0.00000  -0.00070  -0.00381  -0.00825   0.00074
  75        3PY         0.00000   0.00074   0.00945   0.02057  -0.00148
  76        3PZ         0.00003   0.00000   0.00000   0.00000   0.00000
  77 5   O  1S         -0.00004   0.01666  -0.19576   0.09415   0.01053
  78        2S          0.00007  -0.03493   0.42709  -0.20671  -0.02469
  79        2PX         0.00004  -0.01691  -0.06603   0.03684   0.01639
  80        2PY         0.00003  -0.01656   0.04873  -0.01977  -0.00458
  81        2PZ         0.00541   0.00001   0.00003  -0.00002  -0.00001
  82        3S          0.00005  -0.02619   0.44511  -0.21271  -0.02256
  83        3PX         0.00001  -0.00320   0.00192   0.00214   0.00799
  84        3PY         0.00001  -0.00689   0.03501  -0.01174   0.00063
  85        3PZ         0.00285   0.00001   0.00000   0.00000   0.00000
  86        4D 0        0.00000   0.00137  -0.00625   0.00258  -0.00018
  87        4D+1        0.00121   0.00000  -0.00001   0.00000   0.00000
  88        4D-1        0.00097   0.00000   0.00000   0.00000   0.00000
  89        4D+2        0.00000   0.00015   0.00537  -0.00362   0.00051
  90        4D-2        0.00000  -0.00224   0.00276  -0.00083  -0.00036
  91 6   H  1S          0.00001  -0.00357   0.15203  -0.07566  -0.01458
  92        2S          0.00000   0.00247   0.01589  -0.01026  -0.00108
  93        3PX         0.00000  -0.00118   0.02092  -0.01029  -0.00187
  94        3PY         0.00000  -0.00005  -0.00668   0.00302   0.00052
  95        3PZ         0.00004   0.00000  -0.00001   0.00000   0.00000
                          11        12        13        14        15
                           O         O         O         O         O
     Eigenvalues --    -0.50371  -0.49074  -0.36565  -0.35307  -0.35269
   1 1   Ti 1S         -0.05417  -0.02046   0.03241  -0.00056  -0.02660
   2        2S         -0.13422  -0.05031   0.08148  -0.00133  -0.06321
   3        3S         -0.06078  -0.02427   0.04142  -0.00095  -0.04492
   4        4S          0.12042   0.04666  -0.09380   0.00238   0.11278
   5        5S         -0.03052  -0.00995   0.05461  -0.00134  -0.06382
   6        6S          0.00538   0.00134  -0.00958   0.00017   0.00834
   7        7PX         0.00360  -0.01855   0.00545   0.00030   0.01432
   8        7PY         0.01178  -0.00151  -0.00005   0.00017   0.00782
   9        7PZ         0.00000   0.00000   0.00000  -0.00268   0.00006
  10        8PX         0.02673  -0.13640   0.04086   0.00222   0.10586
  11        8PY         0.08636  -0.01080   0.00034   0.00124   0.05824
  12        8PZ        -0.00002  -0.00002   0.00000  -0.01986   0.00043
  13        9PX         0.01012  -0.04397   0.01638   0.00075   0.03575
  14        9PY         0.02983  -0.00457   0.00115   0.00048   0.02264
  15        9PZ        -0.00001  -0.00001   0.00000  -0.00377   0.00008
  16       10PX        -0.00409   0.03739   0.00550  -0.00140  -0.06812
  17       10PY        -0.03072   0.01445   0.07730   0.00031   0.01398
  18       10PZ         0.00000   0.00000   0.00003   0.03383  -0.00075
  19       11PX         0.00463  -0.00733   0.02411   0.00021   0.00959
  20       11PY         0.00366   0.00612   0.01331   0.00040   0.01910
  21       11PZ         0.00000   0.00000   0.00000   0.00400  -0.00010
  22       12D 0       -0.10530  -0.03754   0.10927  -0.00150  -0.07192
  23       12D+1        0.00000   0.00007  -0.00004  -0.20434   0.00417
  24       12D-1       -0.00004   0.00000   0.00002  -0.13614   0.00287
  25       12D+2        0.06584   0.13711   0.15358   0.00395   0.18722
  26       12D-2        0.11718  -0.12650   0.26390  -0.00074  -0.03413
  27       13D 0       -0.02284  -0.00796   0.03076  -0.00058  -0.02809
  28       13D+1        0.00000   0.00001  -0.00001  -0.08924   0.00183
  29       13D-1       -0.00001   0.00000   0.00002  -0.05345   0.00114
  30       13D+2        0.01286   0.05067   0.06808   0.00146   0.06957
  31       13D-2        0.03765  -0.03516   0.10002  -0.00117  -0.05452
  32       14D 0       -0.00015  -0.00070  -0.00913   0.00024   0.01130
  33       14D+1        0.00000   0.00000   0.00001  -0.04901   0.00102
  34       14D-1        0.00000   0.00000   0.00002  -0.01901   0.00043
  35       14D+2       -0.00130   0.00945   0.01624  -0.00023  -0.01053
  36       14D-2        0.00645  -0.00152  -0.00435  -0.00096  -0.04470
  37       15F 0        0.00000   0.00000   0.00000  -0.00320   0.00007
  38       15F+1        0.00197  -0.00863   0.00455   0.00010   0.00529
  39       15F-1        0.00560   0.00019   0.00299   0.00011   0.00539
  40       15F+2        0.00000   0.00001   0.00000   0.00607  -0.00013
  41       15F-2        0.00000   0.00000   0.00001   0.01606  -0.00034
  42       15F+3        0.01204   0.00791  -0.01133  -0.00011  -0.00564
  43       15F-3       -0.01377  -0.00178   0.00970  -0.00023  -0.01092
  44 2   O  1S          0.00846  -0.00230  -0.01937  -0.00005  -0.00233
  45        2S         -0.02157   0.00193   0.03958   0.00010   0.00428
  46        2PX         0.03908  -0.04477   0.17463  -0.00355  -0.16455
  47        2PY        -0.01791   0.02118   0.26616   0.00144   0.06412
  48        2PZ        -0.00003   0.00001   0.00022  -0.11107   0.00241
  49        3S         -0.02848   0.02115   0.10562   0.00015   0.00648
  50        3PX         0.01997  -0.01936   0.10779  -0.00199  -0.09225
  51        3PY        -0.01010   0.00585   0.14899   0.00080   0.03569
  52        3PZ        -0.00002   0.00001   0.00013  -0.07294   0.00158
  53        4D 0       -0.00145  -0.00001   0.00421   0.00001   0.00042
  54        4D+1        0.00000   0.00000   0.00000  -0.00216   0.00005
  55        4D-1        0.00000   0.00000  -0.00001   0.00611  -0.00013
  56        4D+2        0.00089   0.00126   0.00902   0.00005   0.00206
  57        4D-2       -0.00440   0.00304  -0.00959   0.00020   0.00908
  58 3   O  1S         -0.02172  -0.04922  -0.01608   0.00056   0.02697
  59        2S          0.04594   0.10793   0.04088  -0.00120  -0.05764
  60        2PX        -0.10890  -0.25529   0.36054  -0.00371  -0.17980
  61        2PY         0.19426   0.39256   0.16851  -0.00412  -0.19664
  62        2PZ        -0.00005  -0.00011   0.00010  -0.19099   0.00375
  63        3S          0.09093   0.19330   0.05557  -0.00290  -0.13926
  64        3PX        -0.06512  -0.14907   0.25272  -0.00237  -0.11516
  65        3PY         0.10609   0.21568   0.10835  -0.00284  -0.13590
  66        3PZ        -0.00003  -0.00006   0.00007  -0.13317   0.00262
  67        4D 0        0.00123   0.00264   0.00479  -0.00010  -0.00502
  68        4D+1        0.00000   0.00000   0.00000   0.00529  -0.00010
  69        4D-1        0.00000   0.00000  -0.00001   0.00302  -0.00006
  70        4D+2        0.00597   0.01711  -0.00665  -0.00006  -0.00261
  71        4D-2       -0.00198  -0.00186  -0.01721   0.00012   0.00549
  72 4   H  1S         -0.11365  -0.23802  -0.00168   0.00126   0.06069
  73        2S         -0.06354  -0.14126   0.00446   0.00089   0.04312
  74        3PX         0.00206   0.00297   0.01277  -0.00018  -0.00849
  75        3PY        -0.00739  -0.01441   0.00322  -0.00001  -0.00069
  76        3PZ         0.00000   0.00000   0.00000  -0.00671   0.00013
  77 5   O  1S         -0.04507   0.02957   0.01325   0.00034   0.01610
  78        2S          0.09754  -0.06528  -0.02892  -0.00090  -0.04219
  79        2PX         0.47218  -0.20834   0.01257   0.00275   0.11985
  80        2PY        -0.03498   0.08188   0.23813   0.01024   0.48530
  81        2PZ        -0.00020   0.00006   0.00001   0.53600  -0.01147
  82        3S          0.17902  -0.11781  -0.06238  -0.00100  -0.04745
  83        3PX         0.26775  -0.11849   0.00680   0.00221   0.09710
  84        3PY        -0.01216   0.04388   0.15606   0.00733   0.34783
  85        3PZ        -0.00011   0.00003   0.00001   0.38785  -0.00831
  86        4D 0        0.00226  -0.00217  -0.00325  -0.00011  -0.00553
  87        4D+1        0.00000   0.00000   0.00000   0.00018   0.00000
  88        4D-1       -0.00001   0.00000   0.00000   0.01700  -0.00036
  89        4D+2       -0.00332  -0.00397  -0.00564  -0.00040  -0.01868
  90        4D-2        0.01647  -0.00570   0.00094   0.00002   0.00077
  91 6   H  1S         -0.23850   0.11078   0.02796   0.00008   0.00384
  92        2S         -0.13462   0.06016   0.01164   0.00012   0.00582
  93        3PX        -0.01336   0.00699   0.00380   0.00014   0.00650
  94        3PY         0.00735  -0.00200   0.00663   0.00032   0.01536
  95        3PZ         0.00001   0.00000   0.00000   0.01836  -0.00039
                          16        17        18        19        20
                           O         O         O         O         V
     Eigenvalues --    -0.34432  -0.32424  -0.32404  -0.30089  -0.10282
   1 1   Ti 1S          0.00001   0.04550  -0.00085   0.00116  -0.08383
   2        2S          0.00003   0.11569  -0.00217   0.00367  -0.19783
   3        3S          0.00001   0.05595  -0.00105   0.00086  -0.17704
   4        4S          0.00000  -0.09366   0.00177   0.02123   0.51597
   5        5S          0.00000   0.09592  -0.00178  -0.02651   0.11472
   6        6S          0.00000  -0.01638   0.00030   0.00402   0.03464
   7        7PX         0.00000  -0.00036   0.00001  -0.01803   0.00075
   8        7PY         0.00001   0.01769  -0.00031   0.00949  -0.00037
   9        7PZ        -0.00079  -0.00030  -0.01697   0.00000   0.00001
  10        8PX         0.00002  -0.00305   0.00008  -0.13377   0.00560
  11        8PY         0.00008   0.13226  -0.00235   0.07084  -0.00328
  12        8PZ        -0.00605  -0.00222  -0.12555   0.00000   0.00009
  13        9PX         0.00000  -0.00298   0.00006  -0.04770   0.00361
  14        9PY         0.00003   0.05194  -0.00093   0.02947  -0.00351
  15        9PZ         0.00043  -0.00049  -0.02825   0.00000   0.00000
  16       10PX        -0.00004  -0.03456   0.00059   0.09518  -0.00305
  17       10PY         0.00005   0.00177  -0.00009  -0.01673  -0.04569
  18       10PZ         0.02581   0.00295   0.16385   0.00000  -0.00023
  19       11PX         0.00000  -0.01215   0.00022  -0.02105  -0.00053
  20       11PY         0.00002   0.01164  -0.00020   0.01085  -0.01669
  21       11PZ         0.00749   0.00011   0.00583  -0.00001  -0.00008
  22       12D 0        0.00004   0.20157  -0.00351   0.02219   0.63613
  23       12D+1        0.13787   0.00023   0.01373   0.00007  -0.00001
  24       12D-1       -0.26109   0.00310   0.17501  -0.00001  -0.00011
  25       12D+2        0.00015   0.25807  -0.00462   0.07630  -0.09923
  26       12D-2        0.00002  -0.09058   0.00159   0.10886  -0.01959
  27       13D 0        0.00000   0.04912  -0.00082   0.00453   0.25834
  28       13D+1        0.05915   0.00007   0.00461   0.00001   0.00000
  29       13D-1       -0.10993   0.00119   0.06513   0.00001  -0.00005
  30       13D+2        0.00002   0.05067  -0.00090  -0.01590  -0.02578
  31       13D-2        0.00000  -0.03917   0.00068   0.05518  -0.01093
  32       14D 0        0.00001  -0.02110   0.00042   0.00974   0.08189
  33       14D+1        0.02908   0.00005   0.00364  -0.00002   0.00000
  34       14D-1       -0.03754   0.00007   0.00170   0.00002  -0.00001
  35       14D+2       -0.00006  -0.04592   0.00082  -0.05988   0.02056
  36       14D-2       -0.00001  -0.00205   0.00003   0.02074  -0.01380
  37       15F 0       -0.00037  -0.00037  -0.02102   0.00000   0.00000
  38       15F+1        0.00001  -0.00160   0.00003  -0.00756  -0.00033
  39       15F-1        0.00000   0.01005  -0.00017   0.00446  -0.00031
  40       15F+2        0.02107  -0.00014  -0.00732  -0.00001   0.00000
  41       15F-2       -0.00320  -0.00007  -0.00353   0.00001   0.00000
  42       15F+3       -0.00001   0.01004  -0.00018  -0.02446  -0.00154
  43       15F-3        0.00000   0.01630  -0.00029  -0.00805   0.00193
  44 2   O  1S         -0.00002  -0.02582   0.00047  -0.00705   0.01039
  45        2S          0.00004   0.05729  -0.00104   0.01750  -0.03530
  46        2PX        -0.00004  -0.27659   0.00492   0.44779   0.01811
  47        2PY         0.00043   0.46341  -0.00858   0.21627  -0.07514
  48        2PZ        -0.33006   0.00811   0.43057   0.00018  -0.00008
  49        3S          0.00008   0.10864  -0.00198   0.01498  -0.02921
  50        3PX        -0.00002  -0.18393   0.00327   0.30504   0.02056
  51        3PY         0.00026   0.29258  -0.00543   0.14491  -0.07599
  52        3PZ        -0.21187   0.00550   0.29263   0.00013  -0.00008
  53        4D 0        0.00002   0.00776  -0.00015   0.00231   0.00703
  54        4D+1       -0.00051   0.00004   0.00197  -0.00001   0.00000
  55        4D-1        0.01703  -0.00038  -0.02036  -0.00001  -0.00001
  56        4D+2        0.00001   0.01023  -0.00019   0.00731  -0.00044
  57        4D-2        0.00000   0.01230  -0.00022  -0.01675  -0.00047
  58 3   O  1S          0.00001   0.00240  -0.00004   0.01149   0.00488
  59        2S         -0.00003  -0.00564   0.00009  -0.03363  -0.01879
  60        2PX        -0.00028  -0.05324   0.00073  -0.33640  -0.01573
  61        2PY        -0.00008  -0.03686   0.00063  -0.17197   0.01308
  62        2PZ         0.45057   0.00578   0.33049  -0.00027  -0.00005
  63        3S         -0.00006  -0.00468   0.00006  -0.02466  -0.01782
  64        3PX        -0.00019  -0.03104   0.00039  -0.26930  -0.02601
  65        3PY        -0.00005  -0.02586   0.00045  -0.11966   0.00844
  66        3PZ         0.32657   0.00435   0.24863  -0.00021  -0.00005
  67        4D 0       -0.00001   0.00002   0.00000  -0.00532   0.00793
  68        4D+1       -0.01182  -0.00011  -0.00610   0.00000  -0.00001
  69        4D-1       -0.01036  -0.00012  -0.00712   0.00001   0.00001
  70        4D+2        0.00000   0.00064  -0.00001  -0.00175  -0.00066
  71        4D-2        0.00001   0.00038   0.00000   0.00899   0.00622
  72 4   H  1S          0.00003   0.01014  -0.00018   0.01670  -0.01938
  73        2S          0.00002   0.00446  -0.00007   0.02871  -0.03047
  74        3PX        -0.00001  -0.00228   0.00003  -0.01287  -0.00162
  75        3PY         0.00000  -0.00046   0.00001  -0.00432  -0.00065
  76        3PZ         0.01572   0.00020   0.01152  -0.00001   0.00000
  77 5   O  1S          0.00000  -0.02118   0.00038   0.00616   0.00853
  78        2S         -0.00001   0.04785  -0.00086  -0.00959  -0.02785
  79        2PX         0.00007   0.02805  -0.00035  -0.05178   0.01964
  80        2PY         0.00014  -0.24148   0.00444  -0.02952   0.04973
  81        2PZ         0.08679   0.00415   0.23719   0.00007  -0.00006
  82        3S         -0.00002   0.10111  -0.00180  -0.04477  -0.03712
  83        3PX         0.00005   0.01508  -0.00015  -0.04167   0.02796
  84        3PY         0.00010  -0.17534   0.00323  -0.01983   0.05502
  85        3PZ         0.06261   0.00315   0.17944   0.00005  -0.00006
  86        4D 0        0.00000   0.00550  -0.00010   0.00007   0.00718
  87        4D+1        0.00044  -0.00005  -0.00279   0.00000   0.00001
  88        4D-1        0.00151   0.00012   0.00680   0.00000   0.00000
  89        4D+2       -0.00001   0.00037  -0.00001   0.00330  -0.00259
  90        4D-2        0.00000   0.00498  -0.00009  -0.00034  -0.00476
  91 6   H  1S          0.00000  -0.05547   0.00098   0.01999  -0.00302
  92        2S          0.00003  -0.04939   0.00088   0.05311  -0.00063
  93        3PX         0.00000  -0.00362   0.00007   0.00077   0.00065
  94        3PY         0.00000  -0.00680   0.00013  -0.00257   0.00359
  95        3PZ         0.00288   0.00015   0.00830   0.00000   0.00000
                          21        22        23        24        25
                           V         V         V         V         V
     Eigenvalues --    -0.06322  -0.03620  -0.01448   0.00601   0.01962
   1 1   Ti 1S          0.00000   0.00000  -0.00223  -0.00899  -0.02161
   2        2S         -0.00001   0.00000  -0.00181  -0.01992  -0.05002
   3        3S         -0.00001  -0.00001  -0.02009  -0.02555  -0.05061
   4        4S          0.00000   0.00001  -0.10341   0.06772   0.09254
   5        5S          0.00003   0.00008  -0.00778  -0.06516  -0.08070
   6        6S          0.00001   0.00014   0.90713   0.05656   0.03042
   7        7PX         0.00001   0.00000  -0.00164   0.00212   0.00378
   8        7PY         0.00000   0.00000   0.00083  -0.01046  -0.02251
[...]
          (Kelvin)            768.02   791.42  1015.67  1173.05  1558.62
                             5639.22  5648.00
 
 Zero-point correction=                           0.029388 (Hartree/Particle)
 Thermal correction to Energy=                    0.035294
 Thermal correction to Enthalpy=                  0.036238
 Thermal correction to Gibbs Free Energy=        -0.000838
 Sum of electronic and zero-point Energies=           -285.255367
 Sum of electronic and thermal Energies=              -285.249461
 Sum of electronic and thermal Enthalpies=            -285.248517
 Sum of electronic and thermal Free Energies=         -285.285593
 
                     E (Thermal)             CV                S
                      KCal/Mol        Cal/Mol-Kelvin    Cal/Mol-Kelvin
 Total                   22.147             18.344             78.032
 Electronic               0.000              0.000              0.000
 Translational            0.889              2.981             39.656
 Rotational               0.889              2.981             25.334
 Vibrational             20.370             12.382             13.042
 Vibration     1          0.594              1.984              5.770
 Vibration     2          0.630              1.863              2.301
 Vibration     3          0.667              1.749              1.676
 Vibration     4          0.789              1.410              0.866
 Vibration     5          0.824              1.323              0.746
 Vibration     6          0.889              1.175              0.579
 Vibration     7          0.905              1.140              0.544
                       Q            Log10(Q)             Ln(Q)
 Total Bot       0.242905D+01          0.385436          0.887500
 Total V=0       0.799561D+14         13.902852         32.012499
 Vib (Bot)       0.830330D-12        -12.080749        -27.816953
 Vib (Bot)    1  0.669577D+01          0.825801          1.901477
 Vib (Bot)    2  0.109844D+01          0.040775          0.093887
 Vib (Bot)    3  0.753795D+00         -0.122747         -0.282635
 Vib (Bot)    4  0.408127D+00         -0.389205         -0.896177
 Vib (Bot)    5  0.361989D+00         -0.441304         -1.016141
 Vib (Bot)    6  0.298540D+00         -0.524997         -1.208850
 Vib (Bot)    7  0.285279D+00         -0.544731         -1.254289
 Vib (V=0)       0.273317D+02          1.436666          3.308046
 Vib (V=0)    1  0.721442D+01          0.858201          1.976081
 Vib (V=0)    2  0.170688D+01          0.232203          0.534667
 Vib (V=0)    3  0.140455D+01          0.147537          0.339715
 Vib (V=0)    4  0.114542D+01          0.058965          0.135772
 Vib (V=0)    5  0.111728D+01          0.048163          0.110898
 Vib (V=0)    6  0.108235D+01          0.034366          0.079131
 Vib (V=0)    7  0.107566D+01          0.031675          0.072934
 Electronic      0.100000D+01          0.000000          0.000000
 Translational   0.381023D+08          7.580951         17.455784
 Rotational      0.767776D+05          4.885235         11.248669
 
                                                              Frequency
                                                             IR Spectrum
 
     33                                                                                          1                                   
     99                                                                                          0        8   7   55 4 4    2  1     
     21                                                                                          8        1   0   53 6 2    5  8   3 
     69                                                                                          3        5   6   04 7 8    8  3   1 
 
     XX                                                                                          X        X   X   XX X X    X  X   X 
     XX                                                                                          X        X   X   XX X X       X   X 
     XX                                                                                          X        X   X   XX X X           X 
     XX                                                                                          X        X   X   XX X X             
     XX                                                                                          X        X   X   XX X X             
     XX                                                                                          X        X       XX X X             
     XX                                                                                          X        X       XX X X             
     XX                                                                                          X        X       XX X X             
      X                                                                                          X        X       XX X X             
      X                                                                                          X        X       XX X X             
      X                                                                                          X        X       XX                 
      X                                                                                          X        X        X                 
      X                                                                                          X        X        X                 
      X                                                                                          X        X        X                 
                                                                                                 X        X        X                 
                                                                                                 X        X                          
                                                                                                 X                                   
                                                                                                 X                                   
                                                                                                 X                                   
                                                                                                 X                                   
 
 ***** Axes restored to original set *****
 -------------------------------------------------------------------
 Center     Atomic                   Forces (Hartrees/Bohr)
 Number     Number              X              Y              Z
 -------------------------------------------------------------------
      1       22           0.000002481   -0.000008395   -0.000002657
      2        8          -0.000005785    0.000009711    0.000000825
      3        8          -0.000002820    0.000005991    0.000001312
      4        1          -0.000000040    0.000001607   -0.000000731
      5        8           0.000003221   -0.000008586    0.000002601
      6        1           0.000002943   -0.000000328   -0.000001350
 -------------------------------------------------------------------
 Cartesian Forces:  Max     0.000009711 RMS     0.000004486
 Z-matrix is all fixed cartesians, so copy forces.
 Force constants in Cartesian coordinates: 
                1             2             3             4             5 
      1  0.512947D+00
      2  0.181152D-01  0.667460D+00
      3 -0.829303D-05 -0.123845D-03  0.129234D-01
      4 -0.633323D-01 -0.405769D-01  0.156954D-04  0.319228D-01
      5 -0.389453D-01 -0.511211D+00  0.187032D-03  0.436245D-01  0.521765D+00
      6  0.133857D-04  0.172886D-03 -0.426864D-02 -0.133729D-04 -0.168558D-03
      7 -0.216089D+00 -0.501452D-01 -0.763360D-04  0.849602D-02 -0.338403D-01
      8 -0.735134D-01 -0.624202D-01 -0.277669D-04 -0.577149D-02 -0.246418D-02
      9 -0.668815D-04 -0.126343D-04 -0.615430D-02  0.545935D-05 -0.146918D-04
     10 -0.138804D-01 -0.151939D-01 -0.762711D-05  0.179193D-02  0.187415D-02
     11  0.300877D-02 -0.448357D-02  0.152796D-05 -0.162816D-02  0.269025D-02
     12 -0.460429D-05 -0.617500D-05  0.411446D-02  0.146164D-05  0.298601D-05
     13 -0.202680D+00  0.891152D-01  0.670330D-04  0.185416D-01  0.294066D-01
     14  0.740248D-01 -0.902258D-01 -0.305660D-04  0.842680D-02 -0.843357D-02
     15  0.582052D-04 -0.325550D-04 -0.159683D-01 -0.716468D-05 -0.564902D-05
     16 -0.169646D-01 -0.131440D-02  0.952780D-05  0.257999D-02 -0.211973D-02
     17  0.173099D-01  0.879879D-03 -0.638164D-05 -0.407473D-02 -0.234647D-02
     18  0.818782D-05  0.232343D-05  0.935336D-02 -0.207877D-05 -0.111914D-05
                6             7             8             9            10 
      6  0.271763D-02
      7  0.150631D-04  0.290699D+00
      8 -0.373155D-05  0.266067D+00  0.521003D+00
      9 -0.200048D-02  0.931739D-04  0.122827D-03  0.154913D-01
     10 -0.104596D-05 -0.728693D-01 -0.179718D+00 -0.312412D-04  0.840320D-01
     11  0.000000D+00 -0.192942D+00 -0.472281D+00 -0.996109D-04  0.190584D+00
     12  0.139961D-02 -0.338177D-04 -0.976730D-04 -0.105779D-01  0.380477D-04
     13 -0.114246D-04 -0.120974D-01 -0.851269D-02  0.000000D+00  0.939587D-03
     14  0.000000D+00  0.112394D-01  0.154631D-01  0.414312D-05  0.222165D-02
     15  0.677694D-02  0.342362D-05  0.712515D-05  0.307056D-02  0.178801D-05
     16 -0.260538D-05  0.186086D-02  0.144820D-02  0.000000D+00 -0.138559D-04
     17  0.125407D-05 -0.379146D-03  0.699077D-03  0.000000D+00  0.232540D-03
     18 -0.462505D-02 -0.150695D-05  0.000000D+00  0.170838D-03  0.000000D+00
               11            12            13            14            15 
     11  0.475809D+00
     12  0.990075D-04  0.726811D-02
     13  0.123752D-02 -0.112361D-05  0.690049D+00
     14 -0.187714D-02  0.182174D-05  0.505319D-01  0.139299D+00
     15  0.000000D+00 -0.218354D-02 -0.260374D-03 -0.377235D-04  0.223165D-01
     16 -0.259543D-03  0.000000D+00 -0.494752D+00 -0.146445D+00  0.204122D-03
     17  0.142325D-03  0.000000D+00 -0.161779D+00 -0.542260D-01  0.691381D-04
     18  0.000000D+00 -0.206900D-04  0.206782D-03  0.633009D-04 -0.140121D-01
               16            17            18 
     16  0.507290D+00
     17  0.148690D+00  0.548512D-01
     18 -0.211462D-03 -0.640107D-04  0.913364D-02
 Leave Link  716 at Wed Oct 26 16:48:51 2016, MaxMem= 3370123264 cpu:       1.4
 (Enter /opt/qcapps/g09/l103.exe)

 GradGradGradGradGradGradGradGradGradGradGradGradGradGradGradGradGradGrad
 Berny optimization.
 Search for a local minimum.
 Step number   1 out of a maximum of    2
 All quantities printed in internal units (Hartrees-Bohrs-Radians)
 Second derivative matrix not updated -- analytic derivatives used.
 The second derivative matrix:
                          X1        Y1        Z1        X2        Y2
           X1           0.51295
           Y1           0.01812   0.66746
           Z1          -0.00001  -0.00012   0.01292
           X2          -0.06333  -0.04058   0.00002   0.03192
           Y2          -0.03895  -0.51121   0.00019   0.04362   0.52176
           Z2           0.00001   0.00017  -0.00427  -0.00001  -0.00017
           X3          -0.21609  -0.05015  -0.00008   0.00850  -0.03384
           Y3          -0.07351  -0.06242  -0.00003  -0.00577  -0.00246
           Z3          -0.00007  -0.00001  -0.00615   0.00001  -0.00001
           X4          -0.01388  -0.01519  -0.00001   0.00179   0.00187
           Y4           0.00301  -0.00448   0.00000  -0.00163   0.00269
           Z4           0.00000  -0.00001   0.00411   0.00000   0.00000
           X5          -0.20268   0.08912   0.00007   0.01854   0.02941
           Y5           0.07402  -0.09023  -0.00003   0.00843  -0.00843
           Z5           0.00006  -0.00003  -0.01597  -0.00001  -0.00001
           X6          -0.01696  -0.00131   0.00001   0.00258  -0.00212
           Y6           0.01731   0.00088  -0.00001  -0.00407  -0.00235
           Z6           0.00001   0.00000   0.00935   0.00000   0.00000
                          Z2        X3        Y3        Z3        X4
           Z2           0.00272
           X3           0.00002   0.29070
           Y3           0.00000   0.26607   0.52100
           Z3          -0.00200   0.00009   0.00012   0.01549
           X4           0.00000  -0.07287  -0.17972  -0.00003   0.08403
           Y4           0.00000  -0.19294  -0.47228  -0.00010   0.19058
           Z4           0.00140  -0.00003  -0.00010  -0.01058   0.00004
           X5          -0.00001  -0.01210  -0.00851   0.00000   0.00094
           Y5           0.00000   0.01124   0.01546   0.00000   0.00222
           Z5           0.00678   0.00000   0.00001   0.00307   0.00000
           X6           0.00000   0.00186   0.00145   0.00000  -0.00001
           Y6           0.00000  -0.00038   0.00070   0.00000   0.00023
           Z6          -0.00463   0.00000   0.00000   0.00017   0.00000
                          Y4        Z4        X5        Y5        Z5
           Y4           0.47581
           Z4           0.00010   0.00727
           X5           0.00124   0.00000   0.69005
           Y5          -0.00188   0.00000   0.05053   0.13930
           Z5           0.00000  -0.00218  -0.00026  -0.00004   0.02232
           X6          -0.00026   0.00000  -0.49475  -0.14644   0.00020
           Y6           0.00014   0.00000  -0.16178  -0.05423   0.00007
           Z6           0.00000  -0.00002   0.00021   0.00006  -0.01401
                          X6        Y6        Z6
           X6           0.50729
           Y6           0.14869   0.05485
           Z6          -0.00021  -0.00006   0.00913
 ITU=  0
     Eigenvalues ---    0.00044   0.00417   0.01168   0.01805   0.03550
     Eigenvalues ---    0.04321   0.06135   0.24270   0.57982   1.05037
     Eigenvalues ---    1.13912   1.17990
 Angle between quadratic step and forces=  78.37 degrees.
 Linear search not attempted -- first point.
 TrRot= -0.000019  0.000005 -0.000155  0.000004  0.000015  0.000004
 Variable       Old X    -DE/DX   Delta X   Delta X   Delta X     New X
                                 (Linear)    (Quad)   (Total)
    X1       -0.00235   0.00000   0.00000   0.00005   0.00003  -0.00231
    Y1        0.09393  -0.00001   0.00000  -0.00003  -0.00002   0.09391
    Z1        0.00049   0.00000   0.00000  -0.00073  -0.00088  -0.00039
    X2        0.28981  -0.00001   0.00000  -0.00022  -0.00027   0.28954
    Y2        3.12512   0.00001   0.00000   0.00001   0.00002   3.12513
    Z2       -0.00047   0.00000   0.00000   0.00032   0.00016  -0.00030
    X3       -3.24805   0.00000   0.00000   0.00002   0.00001  -3.24804
    Y3       -1.09837   0.00001   0.00000   0.00011   0.00008  -1.09829
    Z3       -0.00037   0.00000   0.00000   0.00016   0.00006  -0.00031
    X4       -3.90325   0.00000   0.00000   0.00002   0.00002  -3.90322
    Y4       -2.79350   0.00000   0.00000   0.00011   0.00008  -2.79343
    Z4       -0.00072   0.00000   0.00000   0.00048   0.00039  -0.00033
    X5        2.87631   0.00000   0.00000   0.00009   0.00009   2.87639
    Y5       -1.78164  -0.00001   0.00000  -0.00006  -0.00003  -1.78167
    Z5       -0.00029   0.00000   0.00000  -0.00002  -0.00022  -0.00051
    X6        4.61033   0.00000   0.00000   0.00013   0.00012   4.61044
    Y6       -1.23392   0.00000   0.00000  -0.00017  -0.00012  -1.23404
    Z6       -0.00103   0.00000   0.00000   0.00072   0.00050  -0.00053
         Item               Value     Threshold  Converged?
 Maximum Force            0.000010     0.000450     YES
 RMS     Force            0.000004     0.000300     YES
 Maximum Displacement     0.000880     0.001800     YES
 RMS     Displacement     0.000276     0.001200     YES
 Predicted change in Energy=-2.156935D-09
 Optimization completed.
    -- Stationary point found.
 GradGradGradGradGradGradGradGradGradGradGradGradGradGradGradGradGradGrad

 Leave Link  103 at Wed Oct 26 16:48:51 2016, MaxMem= 3370123264 cpu:       1.4
 (Enter /opt/qcapps/g09/l9999.exe)

 Test job not archived.
 1\1\GINC-TITAN11\Freq\RB3PW91\GenECP\H2O3Ti1\OHNISHI\26-Oct-2016\0\\#P
  B3PW91/GenECP SCFCon=7 SCFCyc=250 GFInput GFOldPrint Pseudo=Read Freq
  Integral=(Grid=UltraFine) Pop=Regular IOp(1/33=0,2/11=1,3/27=8,6/7=3)
 \\Frequency\\0,1\Ti,-0.001242,0.049708,0.000259\O,0.153363,1.653741,-0
 .000247\O,-1.718794,-0.581233,-0.000197\H,-2.065509,-1.478257,-0.00038
 \O,1.522076,-0.942802,-0.000153\H,2.439679,-0.652962,-0.000544\\Versio
 n=AM64L-G09RevC.01\State=1-A\HF=-285.284755\RMSD=4.704e-08\RMSF=4.486e
 -06\ZeroPoint=0.0293878\Thermal=0.0352936\Dipole=0.3815751,-1.2354779,
 0.0010463\DipoleDeriv=2.4079501,0.131575,-0.0000187,0.0152529,2.422373
 4,0.0000707,0.0000256,0.000122,1.6066207,-0.4347939,-0.1074312,0.00001
 08,-0.1357266,-1.4998672,-0.0000083,0.0000337,0.0001431,-0.716238,-1.4
 547389,-0.5087077,0.0000231,-0.4260324,-0.6711365,-0.0000083,-0.000153
 8,-0.0001426,-0.8149542,0.3778002,0.0124301,0.0000159,0.05901,0.262304
 7,-0.0000131,0.000025,-0.0000002,0.3563718,-1.2608176,0.546703,-0.0000
 43,0.5304276,-0.7801072,-0.0000793,0.0000788,-0.000157,-0.7656427,0.36
 46002,-0.0745693,0.0000119,-0.0429315,0.2664328,0.0000383,-0.0000093,0
 .0000347,0.3338424\Polar=43.9585822,1.6093767,42.8648126,-0.0003891,-0
 .0003404,25.9546372\PG=C01 [X(H2O3Ti1)]\NImag=0\\0.51294690,0.01811522
 ,0.66746048,-0.00000829,-0.00012385,0.01292342,-0.06333231,-0.04057692
 ,0.00001570,0.03192282,-0.03894527,-0.51121080,0.00018703,0.04362451,0
 .52176477,0.00001339,0.00017289,-0.00426864,-0.00001337,-0.00016856,0.
 00271763,-0.21608909,-0.05014520,-0.00007634,0.00849602,-0.03384027,0.
 00001506,0.29069883,-0.07351344,-0.06242019,-0.00002777,-0.00577149,-0
 .00246418,-0.00000373,0.26606748,0.52100325,-0.00006688,-0.00001263,-0
 .00615430,0.00000546,-0.00001469,-0.00200048,0.00009317,0.00012283,0.0
 1549133,-0.01388039,-0.01519393,-0.00000763,0.00179193,0.00187415,-0.0
 0000105,-0.07286926,-0.17971805,-0.00003124,0.08403199,0.00300877,-0.0
 0448357,0.00000153,-0.00162816,0.00269025,-0.00000087,-0.19294225,-0.4
 7228101,-0.00009961,0.19058365,0.47580915,-0.00000460,-0.00000618,0.00
 411446,0.00000146,0.00000299,0.00139961,-0.00003382,-0.00009767,-0.010
 57795,0.00003805,0.00009901,0.00726811,-0.20268047,0.08911524,0.000067
 03,0.01854155,0.02940661,-0.00001142,-0.01209737,-0.00851269,-0.000000
 89,0.00093959,0.00123752,-0.00000112,0.69004913,0.07402478,-0.09022579
 ,-0.00003057,0.00842680,-0.00843357,-0.00000098,0.01123939,0.01546306,
 0.00000414,0.00222165,-0.00187714,0.00000182,0.05053191,0.13929946,0.0
 0005821,-0.00003256,-0.01596830,-0.00000716,-0.00000565,0.00677694,0.0
 0000342,0.00000713,0.00307056,0.00000179,-0.00000034,-0.00218354,-0.00
 026037,-0.00003772,0.02231645,-0.01696464,-0.00131440,0.00000953,0.002
 57999,-0.00211973,-0.00000261,0.00186086,0.00144820,0.00000038,-0.0000
 1386,-0.00025954,0.00000004,-0.49475244,-0.14644452,0.00020412,0.50729
 008,0.01730995,0.00087988,-0.00000638,-0.00407473,-0.00234647,0.000001
 25,-0.00037915,0.00069908,-0.00000003,0.00023254,0.00014232,0.00000003
 ,-0.16177860,-0.05422602,0.00006914,0.14868999,0.05485121,0.00000819,0
 .00000232,0.00935336,-0.00000208,-0.00000112,-0.00462505,-0.00000151,-
 0.00000078,0.00017084,0.00000008,0.00000029,-0.00002069,0.00020678,0.0
 0006330,-0.01401211,-0.00021146,-0.00006401,0.00913364\\-0.00000248,0.
 00000839,0.00000266,0.00000578,-0.00000971,-0.00000083,0.00000282,-0.0
 0000599,-0.00000131,0.00000004,-0.00000161,0.00000073,-0.00000322,0.00
 000859,-0.00000260,-0.00000294,0.00000033,0.00000135\\\@


 TIMES HAVE CHANGED. IN THE BIBLE WHEN AN ASS
 SPOKE IT WAS CONSIDERED A MIRACLE.
 Job cpu time:  0 days  0 hours  0 minutes 37.5 seconds.
 File lengths (MBytes):  RWF=     12 Int=      0 D2E=      0 Chk=      2 Scr=      1
 Normal termination of Gaussian 09 at Wed Oct 26 16:48:51 2016.
real 38.85
user 35.72
sys 1.94
