 Running on titan11
 Entering Gaussian System, Link 0=g09
 Initial command:
 /opt/qcapps/g09/l1.exe /work/ohnishi/1477471353/Gau-26299.inp -scrdir=/work/ohnishi/1477471353/
 Entering Link 1 = /opt/qcapps/g09/l1.exe PID=     26300.
  
 Copyright (c) 1988,1990,1992,1993,1995,1998,2003,2009,2011,
            Gaussian, Inc.  All Rights Reserved.
  
 This is part of the Gaussian(R) 09 program.  It is based on
 the Gaussian(R) 03 system (copyright 2003, Gaussian, Inc.),
 the Gaussian(R) 98 system (copyright 1998, Gaussian, Inc.),
 the Gaussian(R) 94 system (copyright 1995, Gaussian, Inc.),
 the Gaussian 92(TM) system (copyright 1992, Gaussian, Inc.),
 the Gaussian 90(TM) system (copyright 1990, Gaussian, Inc.),
 the Gaussian 88(TM) system (copyright 1988, Gaussian, Inc.),
 the Gaussian 86(TM) system (copyright 1986, Carnegie Mellon
 University), and the Gaussian 82(TM) system (copyright 1983,
 Carnegie Mellon University). Gaussian is a federally registered
 trademark of Gaussian, Inc.
  
 This software contains proprietary and confidential information,
 including trade secrets, belonging to Gaussian, Inc.
  
 This software is provided under written license and may be
 used, copied, transmitted, or stored only in accord with that
 written license.
  
 The following legend is applicable only to US Government
 contracts under FAR:
  
                    RESTRICTED RIGHTS LEGEND
  
 Use, reproduction and disclosure by the US Government is
 subject to restrictions as set forth in subparagraphs (a)
 and (c) of the Commercial Computer Software - Restricted
 Rights clause in FAR 52.227-19.
  
 Gaussian, Inc.
 340 Quinnipiac St., Bldg. 40, Wallingford CT 06492
  
  
 ---------------------------------------------------------------
 Warning -- This program may not be used in any manner that
 competes with the business of Gaussian, Inc. or will provide
 assistance to any competitor of Gaussian, Inc.  The licensee
 of this program is prohibited from giving any competitor of
 Gaussian, Inc. access to this program.  By using this program,
 the user acknowledges that Gaussian, Inc. is engaged in the
 business of creating and licensing software in the field of
 computational chemistry and represents and warrants to the
 licensee that it is not a competitor of Gaussian, Inc. and that
 it will not use this program in any manner prohibited above.
 ---------------------------------------------------------------
  

 Cite this work as:
 Gaussian 09, Revision C.01,
 M. J. Frisch, G. W. Trucks, H. B. Schlegel, G. E. Scuseria, 
 M. A. Robb, J. R. Cheeseman, G. Scalmani, V. Barone, B. Mennucci, 
 G. A. Petersson, H. Nakatsuji, M. Caricato, X. Li, H. P. Hratchian, 
 A. F. Izmaylov, J. Bloino, G. Zheng, J. L. Sonnenberg, M. Hada, 
 M. Ehara, K. Toyota, R. Fukuda, J. Hasegawa, M. Ishida, T. Nakajima, 
 Y. Honda, O. Kitao, H. Nakai, T. Vreven, J. A. Montgomery, Jr., 
 J. E. Peralta, F. Ogliaro, M. Bearpark, J. J. Heyd, E. Brothers, 
 K. N. Kudin, V. N. Staroverov, T. Keith, R. Kobayashi, J. Normand, 
 K. Raghavachari, A. Rendell, J. C. Burant, S. S. Iyengar, J. Tomasi, 
 M. Cossi, N. Rega, J. M. Millam, M. Klene, J. E. Knox, J. B. Cross, 
 V. Bakken, C. Adamo, J. Jaramillo, R. Gomperts, R. E. Stratmann, 
 O. Yazyev, A. J. Austin, R. Cammi, C. Pomelli, J. W. Ochterski, 
 R. L. Martin, K. Morokuma, V. G. Zakrzewski, G. A. Voth, 
 P. Salvador, J. J. Dannenberg, S. Dapprich, A. D. Daniels, 
 O. Farkas, J. B. Foresman, J. V. Ortiz, J. Cioslowski, 
 and D. J. Fox, Gaussian, Inc., Wallingford CT, 2010.
 
 ******************************************
 Gaussian 09:  AM64L-G09RevC.01 23-Sep-2011
                26-Oct-2016 
 ******************************************
 %NprocShared=8
 Will use up to    8 processors via shared memory.
 %Mem=25712MB
 ----------------------------------------------------------------------
 #P B3PW91/GenECP SCFCon=7 SCFCyc=250 GFInput GFOldPrint Pseudo=Read Fr
 eq Integral=(Grid=UltraFine) Pop=Regular IOp(1/33=0,2/11=1,3/27=8,6/7=
 3)
 ----------------------------------------------------------------------
 1/10=4,30=1,38=1/1,3;
 2/11=1,12=2,17=6,18=5,40=1/2;
 3/5=7,11=2,16=1,17=8,24=11,25=1,27=8,30=1,71=2,74=-6,75=-5/1,2,3;
 4//1;
 5/5=2,6=7,7=250,38=5,98=1/2;
 8/6=4,10=90,11=11/1;
 11/6=1,8=1,9=11,15=111,16=1/1,2,10;
 10/6=1/2;
 6/7=3,18=1,28=1/1;
 7/8=1,10=1,25=1/1,2,3,16;
 1/10=4,30=1/3;
 99//99;
 Leave Link    1 at Wed Oct 26 17:42:33 2016, MaxMem= 3370123264 cpu:       0.6
 (Enter /opt/qcapps/g09/l101.exe)
 ---------
 Frequency
 ---------
 Charge =  0 Multiplicity = 1
 Symbolic Z-Matrix:
 Ti                   -0.17855  -0.08583   0.22876 
 O                    -0.39929   1.51108   0.02677 
 O                     1.56352  -0.63733  -0.04642 
 H                     1.80169  -1.51132  -0.37197 
 O                    -1.51999  -1.13075  -0.43177 
 H                    -2.31543  -0.82001  -0.87434 
 O                    -0.09689  -0.05045   2.36901 
 H                     0.77777  -0.32469   2.67657 
 H                    -0.20848   0.87697   2.62198 
 
 NAtoms=      9 NQM=        0 NQMF=       0 NMMI=      9 NMMIF=      0
                NMic=       0 NMicF=      0.
                    Isotopes and Nuclear Properties:
 (Nuclear quadrupole moments (NQMom) in fm**2, nuclear magnetic moments (NMagM)
  in nuclear magnetons)

  Atom         1           2           3           4           5           6           7           8           9
 IAtWgt=          48          16          16           1          16           1          16           1           1
 AtmWgt=  47.9479467  15.9949146  15.9949146   1.0078250  15.9949146   1.0078250  15.9949146   1.0078250   1.0078250
 NucSpn=           0           0           0           1           0           1           0           1           1
 AtZEff=   0.0000000   0.0000000   0.0000000   0.0000000   0.0000000   0.0000000   0.0000000   0.0000000   0.0000000
 NQMom=    0.0000000   0.0000000   0.0000000   0.0000000   0.0000000   0.0000000   0.0000000   0.0000000   0.0000000
 NMagM=    0.0000000   0.0000000   0.0000000   2.7928460   0.0000000   2.7928460   0.0000000   2.7928460   2.7928460
 Leave Link  101 at Wed Oct 26 17:42:33 2016, MaxMem= 3370123264 cpu:       0.8
 (Enter /opt/qcapps/g09/l103.exe)

 GradGradGradGradGradGradGradGradGradGradGradGradGradGradGradGradGradGrad
 Berny optimization.
 Initialization pass.
 Trust Radius=3.00D-01 FncErr=1.00D-07 GrdErr=1.00D-07
 Number of steps in this run=      2 maximum allowed number of steps=      2.
 GradGradGradGradGradGradGradGradGradGradGradGradGradGradGradGradGradGrad

 Leave Link  103 at Wed Oct 26 17:42:34 2016, MaxMem= 3370123264 cpu:       0.2
 (Enter /opt/qcapps/g09/l202.exe)
                          Input orientation:                          
 ---------------------------------------------------------------------
 Center     Atomic      Atomic             Coordinates (Angstroms)
 Number     Number       Type             X           Y           Z
 ---------------------------------------------------------------------
      1         22           0       -0.178548   -0.085833    0.228763
      2          8           0       -0.399288    1.511078    0.026770
      3          8           0        1.563524   -0.637333   -0.046416
      4          1           0        1.801686   -1.511318   -0.371971
      5          8           0       -1.519992   -1.130752   -0.431768
      6          1           0       -2.315433   -0.820005   -0.874340
      7          8           0       -0.096894   -0.050448    2.369008
      8          1           0        0.777769   -0.324693    2.676574
      9          1           0       -0.208479    0.876966    2.621975
 ---------------------------------------------------------------------
                    Distance matrix (angstroms):
                    1          2          3          4          5
     1  Ti   0.000000
     2  O    1.624701   0.000000
     3  O    1.847888   2.910955   0.000000
     4  H    2.512810   3.760074   0.962578   0.000000
     5  O    1.824179   2.906114   3.146431   3.343942   0.000000
     6  H    2.514383   3.149216   3.970533   4.204873   0.961852
     7  O    2.142094   2.831234   2.989263   3.640290   3.322139
     8  H    2.638821   3.431760   2.851286   3.427844   3.948573
     9  H    2.579795   2.678357   3.543079   4.325318   3.882827
                    6          7          8          9
     6  H    0.000000
     7  O    4.004178   0.000000
     8  H    4.735211   0.966873   0.000000
     9  H    4.420767   0.967750   1.555523   0.000000
 Stoichiometry    H4O4Ti
 Framework group  C1[X(H4O4Ti)]
 Deg. of freedom    21
 Full point group                 C1      NOp   1
 Largest Abelian subgroup         C1      NOp   1
 Largest concise Abelian subgroup C1      NOp   1
                         Standard orientation:                         
 ---------------------------------------------------------------------
 Center     Atomic      Atomic             Coordinates (Angstroms)
 Number     Number       Type             X           Y           Z
 ---------------------------------------------------------------------
      1         22           0       -0.176572    0.029690    0.088175
      2          8           0       -0.048582   -0.724716    1.521403
      3          8           0        0.384547    1.790026    0.120642
      4          1           0        0.024375    2.475769   -0.450838
      5          8           0       -1.689427   -0.367671   -0.850442
      6          1           0       -2.389728   -0.964955   -0.571174
      7          8           0        1.605269   -0.787197   -0.775716
      8          1           0        2.247853   -0.085431   -0.947337
      9          1           0        1.987622   -1.362104   -0.097610
 ---------------------------------------------------------------------
 Rotational constants (GHZ):      3.5855307      3.0487592      2.7123157
 Leave Link  202 at Wed Oct 26 17:42:34 2016, MaxMem= 3370123264 cpu:       0.0
 (Enter /opt/qcapps/g09/l301.exe)
 General basis read from cards:  (5D, 7F)
 Centers:   1
 SDDAll
 ****
 Centers:   2  3  5  7  4  6  8  9
 6-31G(d,p)
 ****
 ======================================================================================================
                                       Pseudopotential Parameters
 ======================================================================================================
  Center     Atomic      Valence      Angular      Power
  Number     Number     Electrons     Momentum     of R      Exponent        Coefficient   SO-Coeffient
 ======================================================================================================
    1         22           12
                                      F and up 
                                                     2        1.0000000        0.00000000    0.00000000
                                      S - F
                                                     2       13.0100000      158.24159300    0.00000000
                                                     2        5.8620000       17.51182400    0.00000000
                                      P - F
                                                     2       12.4600000       95.23512700    0.00000000
                                                     2        5.2170000       10.04785600    0.00000000
                                      D - F
                                                     2       15.3500000      -17.56886100    0.00000000
                                                     2        4.9800000       -0.58725600    0.00000000
    2          8
                                   No pseudopotential on this center.
    3          8
                                   No pseudopotential on this center.
    4          1
                                   No pseudopotential on this center.
    5          8
                                   No pseudopotential on this center.
    6          1
                                   No pseudopotential on this center.
    7          8
                                   No pseudopotential on this center.
    8          1
                                   No pseudopotential on this center.
    9          1
                                   No pseudopotential on this center.
 ======================================================================================================
 Ernie: Thresh=  0.10000D-02 Tol=  0.10000D-05 Strict=F.
 AO basis set in the form of general basis input (Overlap normalization):
      1 0
 S   3 1.00       0.000000000000
      0.1078036500D+02  0.1783892477D+01
      0.9717013000D+01 -0.2000689535D+01
      0.4507755000D+01 -0.7563332022D+00
 S   1 1.00       0.000000000000
      0.1246708000D+01  0.1000000000D+01
 S   1 1.00       0.000000000000
      0.5087070000D+00  0.1000000000D+01
 S   1 1.00       0.000000000000
      0.7343800000D-01  0.1000000000D+01
 S   1 1.00       0.000000000000
      0.3004800000D-01  0.1000000000D+01
 S   1 1.00       0.000000000000
      0.1000000000D-01  0.1000000000D+01
 P   2 1.00       0.000000000000
      0.1756638100D+02  0.8860101480D-01
      0.7705844000D+01 -0.1070746179D+01
 P   2 1.00       0.000000000000
      0.3329138000D+01  0.2001088977D+00
      0.1308104000D+01  0.8379855716D+00
 P   1 1.00       0.000000000000
      0.4544820000D+00  0.1000000000D+01
 P   1 1.00       0.000000000000
      0.7177200000D-01  0.1000000000D+01
 P   1 1.00       0.000000000000
      0.2378400000D-01  0.1000000000D+01
 D   4 1.00       0.000000000000
      0.1951919400D+02  0.3581400317D-01
      0.5864613000D+01  0.1723730152D+00
      0.1928038000D+01  0.4251360376D+00
      0.6065630000D+00  0.6025950533D+00
 D   1 1.00       0.000000000000
      0.1639610000D+00  0.1000000000D+01
 D   1 1.00       0.000000000000
      0.5000000000D-01  0.1000000000D+01
 F   1 1.00       0.000000000000
      0.5000000000D+00  0.1000000000D+01
 ****
      2 0
 S   6 1.00       0.000000000000
      0.5484671660D+04  0.1831074430D-02
      0.8252349460D+03  0.1395017220D-01
      0.1880469580D+03  0.6844507810D-01
      0.5296450000D+02  0.2327143360D+00
      0.1689757040D+02  0.4701928980D+00
      0.5799635340D+01  0.3585208530D+00
 SP   3 1.00       0.000000000000
      0.1553961625D+02 -0.1107775495D+00  0.7087426823D-01
      0.3599933586D+01 -0.1480262627D+00  0.3397528391D+00
      0.1013761750D+01  0.1130767015D+01  0.7271585773D+00
 SP   1 1.00       0.000000000000
      0.2700058226D+00  0.1000000000D+01  0.1000000000D+01
 D   1 1.00       0.000000000000
      0.8000000000D+00  0.1000000000D+01
 ****
      3 0
 S   6 1.00       0.000000000000
      0.5484671660D+04  0.1831074430D-02
      0.8252349460D+03  0.1395017220D-01
      0.1880469580D+03  0.6844507810D-01
      0.5296450000D+02  0.2327143360D+00
      0.1689757040D+02  0.4701928980D+00
      0.5799635340D+01  0.3585208530D+00
 SP   3 1.00       0.000000000000
      0.1553961625D+02 -0.1107775495D+00  0.7087426823D-01
      0.3599933586D+01 -0.1480262627D+00  0.3397528391D+00
      0.1013761750D+01  0.1130767015D+01  0.7271585773D+00
 SP   1 1.00       0.000000000000
      0.2700058226D+00  0.1000000000D+01  0.1000000000D+01
 D   1 1.00       0.000000000000
      0.8000000000D+00  0.1000000000D+01
 ****
      4 0
 S   3 1.00       0.000000000000
      0.1873113696D+02  0.3349460434D-01
      0.2825394365D+01  0.2347269535D+00
      0.6401216923D+00  0.8137573261D+00
 S   1 1.00       0.000000000000
      0.1612777588D+00  0.1000000000D+01
 P   1 1.00       0.000000000000
      0.1100000000D+01  0.1000000000D+01
 ****
      5 0
 S   6 1.00       0.000000000000
      0.5484671660D+04  0.1831074430D-02
      0.8252349460D+03  0.1395017220D-01
      0.1880469580D+03  0.6844507810D-01
      0.5296450000D+02  0.2327143360D+00
      0.1689757040D+02  0.4701928980D+00
      0.5799635340D+01  0.3585208530D+00
 SP   3 1.00       0.000000000000
      0.1553961625D+02 -0.1107775495D+00  0.7087426823D-01
      0.3599933586D+01 -0.1480262627D+00  0.3397528391D+00
      0.1013761750D+01  0.1130767015D+01  0.7271585773D+00
 SP   1 1.00       0.000000000000
      0.2700058226D+00  0.1000000000D+01  0.1000000000D+01
 D   1 1.00       0.000000000000
      0.8000000000D+00  0.1000000000D+01
 ****
      6 0
 S   3 1.00       0.000000000000
      0.1873113696D+02  0.3349460434D-01
      0.2825394365D+01  0.2347269535D+00
      0.6401216923D+00  0.8137573261D+00
 S   1 1.00       0.000000000000
      0.1612777588D+00  0.1000000000D+01
 P   1 1.00       0.000000000000
      0.1100000000D+01  0.1000000000D+01
 ****
      7 0
 S   6 1.00       0.000000000000
      0.5484671660D+04  0.1831074430D-02
      0.8252349460D+03  0.1395017220D-01
      0.1880469580D+03  0.6844507810D-01
      0.5296450000D+02  0.2327143360D+00
      0.1689757040D+02  0.4701928980D+00
      0.5799635340D+01  0.3585208530D+00
 SP   3 1.00       0.000000000000
      0.1553961625D+02 -0.1107775495D+00  0.7087426823D-01
      0.3599933586D+01 -0.1480262627D+00  0.3397528391D+00
      0.1013761750D+01  0.1130767015D+01  0.7271585773D+00
 SP   1 1.00       0.000000000000
      0.2700058226D+00  0.1000000000D+01  0.1000000000D+01
 D   1 1.00       0.000000000000
      0.8000000000D+00  0.1000000000D+01
 ****
      8 0
 S   3 1.00       0.000000000000
      0.1873113696D+02  0.3349460434D-01
      0.2825394365D+01  0.2347269535D+00
      0.6401216923D+00  0.8137573261D+00
 S   1 1.00       0.000000000000
      0.1612777588D+00  0.1000000000D+01
 P   1 1.00       0.000000000000
      0.1100000000D+01  0.1000000000D+01
 ****
      9 0
 S   3 1.00       0.000000000000
      0.1873113696D+02  0.3349460434D-01
      0.2825394365D+01  0.2347269535D+00
      0.6401216923D+00  0.8137573261D+00
 S   1 1.00       0.000000000000
      0.1612777588D+00  0.1000000000D+01
 P   1 1.00       0.000000000000
      0.1100000000D+01  0.1000000000D+01
 ****

 ***********************************************************************************************************************************
 *             ATOMIC CENTER             *        ATOMIC ORBITAL       *                     GAUSSIAN FUNCTIONS                    *
 ***********************************************************************************************************************************
 *                                       * FUNCTION    SHELL    SCALE  *                                                           *
 *    ATOM   X-COORD  Y-COORD  Z-COORD   *  NUMBER     TYPE     FACTOR *  EXPONENT    S-COEF      P-COEF      D-COEF      F-COEF   *
 ***********************************************************************************************************************************
 *     Ti    -0.33367  0.05611  0.16663                                                                                            *
+                                                1   S           1.00                                                               
+                                                                      0.107804D+020.756404D+010.000000D+000.000000D+000.000000D+00 
 *                                                                     0.971701D+01-.784765D+010.000000D+000.000000D+000.000000D+00*
 *                                                                     0.450776D+01-.166761D+010.000000D+000.000000D+000.000000D+00*
 *                                               2   S           1.00                                                              *
+                                                                      0.124671D+010.840879D+000.000000D+000.000000D+000.000000D+00 
 *                                               3   S           1.00                                                              *
+                                                                      0.508707D+000.429300D+000.000000D+000.000000D+000.000000D+00 
 *                                               4   S           1.00                                                              *
+                                                                      0.734380D-010.100543D+000.000000D+000.000000D+000.000000D+00 
 *                                               5   S           1.00                                                              *
+                                                                      0.300480D-010.514365D-010.000000D+000.000000D+000.000000D+00 
 *                                               6   S           1.00                                                              *
+                                                                      0.100000D-010.225377D-010.000000D+000.000000D+000.000000D+00 
 *                                           7-  9   P           1.00                                                              *
+                                                                      0.175664D+020.000000D+000.454184D+010.000000D+000.000000D+00 
 *                                                                     0.770584D+010.000000D+00-.195953D+020.000000D+000.000000D+00*
 *                                          10- 12   P           1.00                                                              *
+                                                                      0.332914D+010.000000D+000.128269D+010.000000D+000.000000D+00 
 *                                                                     0.130810D+010.000000D+000.167101D+010.000000D+000.000000D+00*
 *                                          13- 15   P           1.00                                                              *
+                                                                      0.454482D+000.000000D+000.531907D+000.000000D+000.000000D+00 
 *                                          16- 18   P           1.00                                                              *
+                                                                      0.717720D-010.000000D+000.529522D-010.000000D+000.000000D+00 
 *                                          19- 21   P           1.00                                                              *
+                                                                      0.237840D-010.000000D+000.133136D-010.000000D+000.000000D+00 
 *                                          22- 26   D           1.00                                                              *
+                                                                      0.195192D+020.000000D+000.000000D+000.106849D+020.000000D+00 
 *                                                                     0.586461D+010.000000D+000.000000D+000.627043D+010.000000D+00*
 *                                                                     0.192804D+010.000000D+000.000000D+000.220744D+010.000000D+00*
 *                                                                     0.606563D+000.000000D+000.000000D+000.413493D+000.000000D+00*
 *                                          27- 31   D           1.00                                                              *
+                                                                      0.163961D+000.000000D+000.000000D+000.695353D-010.000000D+00 
 *                                          32- 36   D           1.00                                                              *
+                                                                      0.500000D-010.000000D+000.000000D+000.870176D-020.000000D+00 
 *                                          31- 43   F           1.00                                                              *
+                                                                      0.500000D+000.000000D+000.000000D+000.000000D+000.309483D+00 
 *---------------------------------------------------------------------------------------------------------------------------------*
 *     O     -0.09181 -1.36951  2.87504                                                                                            *
+                                               44   S           1.00                                                               
+                                                                      0.548467D+040.831724D+000.000000D+000.000000D+000.000000D+00 
 *                                                                     0.825235D+030.153082D+010.000000D+000.000000D+000.000000D+00*
 *                                                                     0.188047D+030.247715D+010.000000D+000.000000D+000.000000D+00*
 *                                                                     0.529645D+020.325628D+010.000000D+000.000000D+000.000000D+00*
 *                                                                     0.168976D+020.279289D+010.000000D+000.000000D+000.000000D+00*
 *                                                                     0.579964D+010.954938D+000.000000D+000.000000D+000.000000D+00*
 *                                          45- 48   SP          1.00                                                              *
+                                                                      0.155396D+02-.617934D+000.311694D+010.000000D+000.000000D+00 
 *                                                                     0.359993D+01-.275721D+000.240144D+010.000000D+000.000000D+00*
 *                                                                     0.101376D+010.814208D+000.105436D+010.000000D+000.000000D+00*
 *                                          49- 52   SP          1.00                                                              *
+                                                                      0.270006D+000.266956D+000.277432D+000.000000D+000.000000D+00 
 *                                          53- 57   D           1.00                                                              *
+                                                                      0.800000D+000.000000D+000.000000D+000.111382D+010.000000D+00 
 *---------------------------------------------------------------------------------------------------------------------------------*
 *     O      0.72669  3.38266  0.22798                                                                                            *
+                                               58   S           1.00                                                               
+                                                                      0.548467D+040.831724D+000.000000D+000.000000D+000.000000D+00 
 *                                                                     0.825235D+030.153082D+010.000000D+000.000000D+000.000000D+00*
 *                                                                     0.188047D+030.247715D+010.000000D+000.000000D+000.000000D+00*
 *                                                                     0.529645D+020.325628D+010.000000D+000.000000D+000.000000D+00*
 *                                                                     0.168976D+020.279289D+010.000000D+000.000000D+000.000000D+00*
 *                                                                     0.579964D+010.954938D+000.000000D+000.000000D+000.000000D+00*
 *                                          59- 62   SP          1.00                                                              *
+                                                                      0.155396D+02-.617934D+000.311694D+010.000000D+000.000000D+00 
 *                                                                     0.359993D+01-.275721D+000.240144D+010.000000D+000.000000D+00*
 *                                                                     0.101376D+010.814208D+000.105436D+010.000000D+000.000000D+00*
 *                                          63- 66   SP          1.00                                                              *
+                                                                      0.270006D+000.266956D+000.277432D+000.000000D+000.000000D+00 
 *                                          67- 71   D           1.00                                                              *
+                                                                      0.800000D+000.000000D+000.000000D+000.111382D+010.000000D+00 
 *---------------------------------------------------------------------------------------------------------------------------------*
 *     H      0.04606  4.67852 -0.85196                                                                                            *
+                                               72   S           1.00                                                               
+                                                                      0.187311D+020.214935D+000.000000D+000.000000D+000.000000D+00 
 *                                                                     0.282539D+010.364571D+000.000000D+000.000000D+000.000000D+00*
 *                                                                     0.640122D+000.415051D+000.000000D+000.000000D+000.000000D+00*
 *                                              73   S           1.00                                                              *
+                                                                      0.161278D+000.181381D+000.000000D+000.000000D+000.000000D+00 
 *                                          74- 76   P           1.00                                                              *
+                                                                      0.110000D+010.000000D+000.160576D+010.000000D+000.000000D+00 
 *---------------------------------------------------------------------------------------------------------------------------------*
 *     O     -3.19255 -0.69480 -1.60710                                                                                            *
+                                               77   S           1.00                                                               
+                                                                      0.548467D+040.831724D+000.000000D+000.000000D+000.000000D+00 
 *                                                                     0.825235D+030.153082D+010.000000D+000.000000D+000.000000D+00*
 *                                                                     0.188047D+030.247715D+010.000000D+000.000000D+000.000000D+00*
 *                                                                     0.529645D+020.325628D+010.000000D+000.000000D+000.000000D+00*
 *                                                                     0.168976D+020.279289D+010.000000D+000.000000D+000.000000D+00*
 *                                                                     0.579964D+010.954938D+000.000000D+000.000000D+000.000000D+00*
 *                                          78- 81   SP          1.00                                                              *
+                                                                      0.155396D+02-.617934D+000.311694D+010.000000D+000.000000D+00 
 *                                                                     0.359993D+01-.275721D+000.240144D+010.000000D+000.000000D+00*
 *                                                                     0.101376D+010.814208D+000.105436D+010.000000D+000.000000D+00*
 *                                          82- 85   SP          1.00                                                              *
+                                                                      0.270006D+000.266956D+000.277432D+000.000000D+000.000000D+00 
 *                                          86- 90   D           1.00                                                              *
+                                                                      0.800000D+000.000000D+000.000000D+000.111382D+010.000000D+00 
 *---------------------------------------------------------------------------------------------------------------------------------*
 *     H     -4.51593 -1.82350 -1.07936                                                                                            *
+                                               91   S           1.00                                                               
+                                                                      0.187311D+020.214935D+000.000000D+000.000000D+000.000000D+00 
 *                                                                     0.282539D+010.364571D+000.000000D+000.000000D+000.000000D+00*
 *                                                                     0.640122D+000.415051D+000.000000D+000.000000D+000.000000D+00*
 *                                              92   S           1.00                                                              *
+                                                                      0.161278D+000.181381D+000.000000D+000.000000D+000.000000D+00 
 *                                          93- 95   P           1.00                                                              *
+                                                                      0.110000D+010.000000D+000.160576D+010.000000D+000.000000D+00 
 *---------------------------------------------------------------------------------------------------------------------------------*
 *     O      3.03352 -1.48759 -1.46589                                                                                            *
+                                               96   S           1.00                                                               
+                                                                      0.548467D+040.831724D+000.000000D+000.000000D+000.000000D+00 
 *                                                                     0.825235D+030.153082D+010.000000D+000.000000D+000.000000D+00*
 *                                                                     0.188047D+030.247715D+010.000000D+000.000000D+000.000000D+00*
 *                                                                     0.529645D+020.325628D+010.000000D+000.000000D+000.000000D+00*
 *                                                                     0.168976D+020.279289D+010.000000D+000.000000D+000.000000D+00*
 *                                                                     0.579964D+010.954938D+000.000000D+000.000000D+000.000000D+00*
 *                                          97-100   SP          1.00                                                              *
+                                                                      0.155396D+02-.617934D+000.311694D+010.000000D+000.000000D+00 
 *                                                                     0.359993D+01-.275721D+000.240144D+010.000000D+000.000000D+00*
 *                                                                     0.101376D+010.814208D+000.105436D+010.000000D+000.000000D+00*
 *                                         101-104   SP          1.00                                                              *
+                                                                      0.270006D+000.266956D+000.277432D+000.000000D+000.000000D+00 
 *                                         105-109   D           1.00                                                              *
+                                                                      0.800000D+000.000000D+000.000000D+000.111382D+010.000000D+00 
 *---------------------------------------------------------------------------------------------------------------------------------*
 *     H      4.24783 -0.16144 -1.79021                                                                                            *
+                                              110   S           1.00                                                               
+                                                                      0.187311D+020.214935D+000.000000D+000.000000D+000.000000D+00 
 *                                                                     0.282539D+010.364571D+000.000000D+000.000000D+000.000000D+00*
 *                                                                     0.640122D+000.415051D+000.000000D+000.000000D+000.000000D+00*
 *                                             111   S           1.00                                                              *
+                                                                      0.161278D+000.181381D+000.000000D+000.000000D+000.000000D+00 
 *                                         112-114   P           1.00                                                              *
+                                                                      0.110000D+010.000000D+000.160576D+010.000000D+000.000000D+00 
 *---------------------------------------------------------------------------------------------------------------------------------*
 *     H      3.75606 -2.57400 -0.18446                                                                                            *
+                                              115   S           1.00                                                               
+                                                                      0.187311D+020.214935D+000.000000D+000.000000D+000.000000D+00 
 *                                                                     0.282539D+010.364571D+000.000000D+000.000000D+000.000000D+00*
 *                                                                     0.640122D+000.415051D+000.000000D+000.000000D+000.000000D+00*
 *                                             116   S           1.00                                                              *
+                                                                      0.161278D+000.181381D+000.000000D+000.000000D+000.000000D+00 
 *                                         117-119   P           1.00                                                              *
+                                                                      0.110000D+010.000000D+000.160576D+010.000000D+000.000000D+00 
 ***********************************************************************************************************************************
 There are   119 symmetry adapted basis functions of A   symmetry.
 Integral buffers will be    131072 words long.
 Raffenetti 2 integral format.
 Two-electron integral symmetry is turned on.
   119 basis functions,   215 primitive gaussians,   129 cartesian basis functions
    24 alpha electrons       24 beta electrons
       nuclear repulsion energy       220.9875270046 Hartrees.
 IExCor=  408 DFT=T Ex+Corr=B3PW91 ExCW=0 ScaHFX=  0.200000
 ScaDFX=  0.800000  0.720000  1.000000  0.810000 ScalE2=  1.000000  1.000000
 IRadAn=      5 IRanWt=     -1 IRanGd=            0 ICorTp=0
 NAtoms=    9 NActive=    9 NUniq=    9 SFac= 1.00D+00 NAtFMM=   60 NAOKFM=F Big=F
 Leave Link  301 at Wed Oct 26 17:42:34 2016, MaxMem= 3370123264 cpu:       0.6
 (Enter /opt/qcapps/g09/l302.exe)
 NPDir=0 NMtPBC=     1 NCelOv=     1 NCel=       1 NClECP=     1 NCelD=      1
         NCelK=      1 NCelE2=     1 NClLst=     1 CellRange=     0.0.
 One-electron integrals computed using PRISM.
   1 Symmetry operations used in ECPInt.
 ECPInt:  NShTT=     946 NPrTT=    3836 LenC2=     941 LenP2D=    3036.
 LDataN:  DoStor=T MaxTD1= 6 Len=  172
 NBasis=   119 RedAO= T  NBF=   119
 NBsUse=   119 1.00D-06 NBFU=   119
 Precomputing XC quadrature grid using
 IXCGrd= 2 IRadAn=           5 IRanWt=          -1 IRanGd=           0 AccXCQ= 0.00D+00.
 NRdTot=     784 NPtTot=      220296 NUsed=      225914 NTot=      225946
 NSgBfM=   129   129   129   129   129 NAtAll=     9     9.
 Leave Link  302 at Wed Oct 26 17:42:34 2016, MaxMem= 3370123264 cpu:       2.1
 (Enter /opt/qcapps/g09/l303.exe)
 DipDrv:  MaxL=1.
 Leave Link  303 at Wed Oct 26 17:42:34 2016, MaxMem= 3370123264 cpu:       0.3
 (Enter /opt/qcapps/g09/l401.exe)
 Harris functional with IExCor=  408 diagonalized for initial guess.
 ExpMin= 1.00D-02 ExpMax= 5.48D+03 ExpMxC= 8.25D+02 IAcc=3 IRadAn=         5 AccDes= 0.00D+00
 HarFok:  IExCor=  408 AccDes= 0.00D+00 IRadAn=         5 IDoV= 1
 ScaDFX=  1.000000  1.000000  1.000000  1.000000
 FoFCou: FMM=F IPFlag=           0 FMFlag=      100000 FMFlg1=           0
         NFxFlg=           0 DoJE=T BraDBF=F KetDBF=T FulRan=T
         Omega=  0.000000  0.000000  1.000000  0.000000  0.000000 ICntrl=     500 IOpCl=  0
         NMat0=    1 NMatS0=    1 NMatT0=    0 NMatD0=    1 NMtDS0=    0 NMtDT0=    0
         I1Cent=           4 NGrid=           0.
 Petite list used in FoFCou.
 Harris En= -362.051990494370    
 Initial guess orbital symmetries:
       Occupied  (A) (A) (A) (A) (A) (A) (A) (A) (A) (A) (A) (A)
                 (A) (A) (A) (A) (A) (A) (A) (A) (A) (A) (A) (A)
       Virtual   (A) (A) (A) (A) (A) (A) (A) (A) (A) (A) (A) (A)
                 (A) (A) (A) (A) (A) (A) (A) (A) (A) (A) (A) (A)
                 (A) (A) (A) (A) (A) (A) (A) (A) (A) (A) (A) (A)
                 (A) (A) (A) (A) (A) (A) (A) (A) (A) (A) (A) (A)
                 (A) (A) (A) (A) (A) (A) (A) (A) (A) (A) (A) (A)
                 (A) (A) (A) (A) (A) (A) (A) (A) (A) (A) (A) (A)
                 (A) (A) (A) (A) (A) (A) (A) (A) (A) (A) (A) (A)
                 (A) (A) (A) (A) (A) (A) (A) (A) (A) (A) (A)
 The electronic state of the initial guess is 1-A.
 Leave Link  401 at Wed Oct 26 17:42:35 2016, MaxMem= 3370123264 cpu:       5.8
 (Enter /opt/qcapps/g09/l502.exe)
 Closed shell SCF:
 Requested convergence on RMS density matrix=1.00D-07 within 250 cycles.
 Requested convergence on MAX density matrix=1.00D-05.
 Requested convergence on             energy=1.00D-05.
 No special actions if energy rises.
 Using DIIS extrapolation, IDIIS=  1040.
 Integral symmetry usage will be decided dynamically.
       225820 words used for storage of precomputed grid.
 Keep R1 ints in memory in canonical form, NReq=37440920.
 IEnd=      342601 IEndB=      342601 NGot=  3370123264 MDV=  3334702101
 LenX=  3334702101 LenY=  3334685019
 Symmetry not used in FoFDir.
 MinBra= 0 MaxBra= 3 Meth= 1.
 IRaf=       0 NMat=   1 IRICut=       1 DoRegI=T DoRafI=F ISym2E= 0 JSym2E=0.

 Cycle   1  Pass 1  IDiag  1:
 E= -361.124284713885    
 DIIS: error= 4.34D-02 at cycle   1 NSaved=   1.
 NSaved= 1 IEnMin= 1 EnMin= -361.124284713885     IErMin= 1 ErrMin= 4.34D-02
 ErrMax= 4.34D-02 EMaxC= 1.00D-01 BMatC= 8.05D-01 BMatP= 8.05D-01
 IDIUse=3 WtCom= 5.66D-01 WtEn= 4.34D-01
 Coeff-Com:  0.100D+01
 Coeff-En:   0.100D+01
 Coeff:      0.100D+01
 Gap=    -0.177 Goal=   None    Shift=    0.000
 GapD=   -0.177 DampG=0.250 DampE=0.250 DampFc=0.1250 IDamp=-1.
 Damping current iteration by 1.25D-01
 RMSDP=2.01D-02 MaxDP=7.47D-01              OVMax= 7.98D-01

 Cycle   2  Pass 1  IDiag  1:
 E= -361.230762208108     Delta-E=       -0.106477494223 Rises=F Damp=T
 DIIS: error= 2.08D-02 at cycle   2 NSaved=   2.
 NSaved= 2 IEnMin= 2 EnMin= -361.230762208108     IErMin= 2 ErrMin= 2.08D-02
 ErrMax= 2.08D-02 EMaxC= 1.00D-01 BMatC= 1.76D-01 BMatP= 8.05D-01
 IDIUse=3 WtCom= 7.92D-01 WtEn= 2.08D-01
 Coeff-Com: -0.410D+00 0.141D+01
 Coeff-En:   0.305D+00 0.695D+00
 Coeff:     -0.261D+00 0.126D+01
 Gap=     0.054 Goal=   None    Shift=    0.000
 RMSDP=5.64D-03 MaxDP=1.03D-01 DE=-1.06D-01 OVMax= 7.52D-01

 Cycle   3  Pass 1  IDiag  1:
 E= -361.432204884168     Delta-E=       -0.201442676060 Rises=F Damp=F
 DIIS: error= 3.25D-02 at cycle   3 NSaved=   3.
 NSaved= 3 IEnMin= 3 EnMin= -361.432204884168     IErMin= 2 ErrMin= 2.08D-02
 ErrMax= 3.25D-02 EMaxC= 1.00D-01 BMatC= 3.54D-01 BMatP= 1.76D-01
 IDIUse=2 WtCom= 0.00D+00 WtEn= 1.00D+00
 EnCoef did     6 forward-backward iterations
 Coeff-En:   0.712D-01 0.205D+00 0.724D+00
 Coeff:      0.712D-01 0.205D+00 0.724D+00
 Gap=     0.257 Goal=   None    Shift=    0.000
 RMSDP=1.15D-02 MaxDP=4.47D-01 DE=-2.01D-01 OVMax= 5.80D-01

 Cycle   4  Pass 1  IDiag  1:
 E= -357.759521091018     Delta-E=        3.672683793150 Rises=F Damp=F
 DIIS: error= 1.32D-01 at cycle   4 NSaved=   4.
 NSaved= 4 IEnMin= 3 EnMin= -361.432204884168     IErMin= 2 ErrMin= 2.08D-02
 ErrMax= 1.32D-01 EMaxC= 1.00D-01 BMatC= 6.33D+00 BMatP= 1.76D-01
 IDIUse=2 WtCom= 0.00D+00 WtEn= 1.00D+00
 EnCoef did   100 forward-backward iterations
 Coeff-En:   0.225D+00 0.554D-02 0.650D+00 0.120D+00
 Coeff:      0.225D+00 0.554D-02 0.650D+00 0.120D+00
 Gap=     0.133 Goal=   None    Shift=    0.000
 RMSDP=6.95D-03 MaxDP=3.06D-01 DE= 3.67D+00 OVMax= 3.71D-01

 Cycle   5  Pass 1  IDiag  1:
 E= -361.483848146086     Delta-E=       -3.724327055068 Rises=F Damp=F
 DIIS: error= 3.62D-02 at cycle   5 NSaved=   5.
 NSaved= 5 IEnMin= 5 EnMin= -361.483848146086     IErMin= 2 ErrMin= 2.08D-02
 ErrMax= 3.62D-02 EMaxC= 1.00D-01 BMatC= 3.67D-01 BMatP= 1.76D-01
 IDIUse=2 WtCom= 0.00D+00 WtEn= 1.00D+00
 EnCoef did     3 forward-backward iterations
 Coeff-En:   0.962D-01 0.000D+00 0.381D+00 0.000D+00 0.523D+00
 Coeff:      0.962D-01 0.000D+00 0.381D+00 0.000D+00 0.523D+00
 Gap=     0.285 Goal=   None    Shift=    0.000
 RMSDP=3.67D-03 MaxDP=1.20D-01 DE=-3.72D+00 OVMax= 1.62D-01

 Cycle   6  Pass 1  IDiag  1:
 E= -361.663773260468     Delta-E=       -0.179925114382 Rises=F Damp=F
 DIIS: error= 1.70D-02 at cycle   6 NSaved=   6.
 NSaved= 6 IEnMin= 6 EnMin= -361.663773260468     IErMin= 6 ErrMin= 1.70D-02
 ErrMax= 1.70D-02 EMaxC= 1.00D-01 BMatC= 8.70D-02 BMatP= 1.76D-01
 IDIUse=3 WtCom= 8.30D-01 WtEn= 1.70D-01
 Coeff-Com: -0.148D+00 0.137D+00 0.128D+00-0.280D-01 0.323D+00 0.588D+00
 Coeff-En:   0.000D+00 0.000D+00 0.000D+00 0.000D+00 0.284D+00 0.716D+00
 Coeff:     -0.123D+00 0.113D+00 0.106D+00-0.232D-01 0.317D+00 0.610D+00
 Gap=     0.220 Goal=   None    Shift=    0.000
 RMSDP=1.57D-03 MaxDP=4.97D-02 DE=-1.80D-01 OVMax= 8.02D-02

 Cycle   7  Pass 1  IDiag  1:
 E= -361.725134029373     Delta-E=       -0.061360768905 Rises=F Damp=F
 DIIS: error= 3.47D-03 at cycle   7 NSaved=   7.
 NSaved= 7 IEnMin= 7 EnMin= -361.725134029373     IErMin= 7 ErrMin= 3.47D-03
 ErrMax= 3.47D-03 EMaxC= 1.00D-01 BMatC= 5.32D-03 BMatP= 8.70D-02
 IDIUse=3 WtCom= 9.65D-01 WtEn= 3.47D-02
 Coeff-Com: -0.153D+00 0.175D+00 0.668D-01-0.191D-01 0.158D+00 0.435D+00
 Coeff-Com:  0.337D+00
 Coeff-En:   0.000D+00 0.000D+00 0.000D+00 0.000D+00 0.000D+00 0.589D-01
 Coeff-En:   0.941D+00
 Coeff:     -0.148D+00 0.169D+00 0.644D-01-0.184D-01 0.153D+00 0.422D+00
 Coeff:      0.358D+00
 Gap=     0.233 Goal=   None    Shift=    0.000
 RMSDP=4.81D-04 MaxDP=1.70D-02 DE=-6.14D-02 OVMax= 2.71D-02

 Cycle   8  Pass 1  IDiag  1:
 E= -361.727689310220     Delta-E=       -0.002555280847 Rises=F Damp=F
 DIIS: error= 2.90D-03 at cycle   8 NSaved=   8.
 NSaved= 8 IEnMin= 8 EnMin= -361.727689310220     IErMin= 8 ErrMin= 2.90D-03
 ErrMax= 2.90D-03 EMaxC= 1.00D-01 BMatC= 2.25D-03 BMatP= 5.32D-03
 IDIUse=3 WtCom= 9.71D-01 WtEn= 2.90D-02
 Coeff-Com: -0.933D-01 0.916D-01 0.145D-01-0.561D-02 0.749D-01 0.195D+00
 Coeff-Com:  0.114D+00 0.608D+00
 Coeff-En:   0.000D+00 0.000D+00 0.000D+00 0.000D+00 0.000D+00 0.000D+00
 Coeff-En:   0.299D+00 0.701D+00
 Coeff:     -0.906D-01 0.889D-01 0.141D-01-0.544D-02 0.728D-01 0.190D+00
 Coeff:      0.120D+00 0.611D+00
 Gap=     0.232 Goal=   None    Shift=    0.000
 RMSDP=1.17D-04 MaxDP=3.38D-03 DE=-2.56D-03 OVMax= 4.33D-03

 Cycle   9  Pass 1  IDiag  1:
 E= -361.728882203805     Delta-E=       -0.001192893585 Rises=F Damp=F
 DIIS: error= 1.51D-03 at cycle   9 NSaved=   9.
 NSaved= 9 IEnMin= 9 EnMin= -361.728882203805     IErMin= 9 ErrMin= 1.51D-03
 ErrMax= 1.51D-03 EMaxC= 1.00D-01 BMatC= 6.51D-04 BMatP= 2.25D-03
 IDIUse=3 WtCom= 9.85D-01 WtEn= 1.51D-02
 Coeff-Com: -0.173D-01 0.941D-02-0.640D-02-0.523D-03 0.302D-01-0.450D-02
 Coeff-Com: -0.262D-01 0.185D+00 0.830D+00
 Coeff-En:   0.000D+00 0.000D+00 0.000D+00 0.000D+00 0.000D+00 0.000D+00
 Coeff-En:   0.832D-01 0.000D+00 0.917D+00
 Coeff:     -0.170D-01 0.927D-02-0.631D-02-0.515D-03 0.297D-01-0.443D-02
 Coeff:     -0.245D-01 0.183D+00 0.831D+00
 Gap=     0.231 Goal=   None    Shift=    0.000
 RMSDP=1.15D-04 MaxDP=3.50D-03 DE=-1.19D-03 OVMax= 4.56D-03

 Cycle  10  Pass 1  IDiag  1:
 E= -361.729359818419     Delta-E=       -0.000477614614 Rises=F Damp=F
 DIIS: error= 1.76D-04 at cycle  10 NSaved=  10.
 NSaved=10 IEnMin=10 EnMin= -361.729359818419     IErMin=10 ErrMin= 1.76D-04
 ErrMax= 1.76D-04 EMaxC= 1.00D-01 BMatC= 7.98D-06 BMatP= 6.51D-04
 IDIUse=3 WtCom= 9.98D-01 WtEn= 1.76D-03
 Coeff-Com:  0.142D-02-0.407D-02-0.394D-02-0.731D-04 0.991D-02-0.256D-01
 Coeff-Com: -0.254D-01-0.654D-02 0.472D+00 0.582D+00
 Coeff-En:   0.000D+00 0.000D+00 0.000D+00 0.000D+00 0.000D+00 0.000D+00
 Coeff-En:   0.000D+00 0.000D+00 0.000D+00 0.100D+01
 Coeff:      0.142D-02-0.406D-02-0.393D-02-0.729D-04 0.990D-02-0.255D-01
 Coeff:     -0.254D-01-0.653D-02 0.471D+00 0.583D+00
 Gap=     0.230 Goal=   None    Shift=    0.000
 RMSDP=2.30D-05 MaxDP=5.73D-04 DE=-4.78D-04 OVMax= 9.33D-04

 Cycle  11  Pass 1  IDiag  1:
 E= -361.729363317245     Delta-E=       -0.000003498826 Rises=F Damp=F
 DIIS: error= 1.21D-04 at cycle  11 NSaved=  11.
 NSaved=11 IEnMin=11 EnMin= -361.729363317245     IErMin=11 ErrMin= 1.21D-04
 ErrMax= 1.21D-04 EMaxC= 1.00D-01 BMatC= 3.77D-06 BMatP= 7.98D-06
 IDIUse=3 WtCom= 9.99D-01 WtEn= 1.21D-03
 Coeff-Com:  0.152D-02-0.138D-02-0.838D-03-0.456D-05 0.121D-02-0.955D-02
 Coeff-Com: -0.866D-02-0.271D-01 0.152D+00 0.377D+00 0.516D+00
 Coeff-En:   0.000D+00 0.000D+00 0.000D+00 0.000D+00 0.000D+00 0.000D+00
 Coeff-En:   0.000D+00 0.000D+00 0.000D+00 0.352D+00 0.648D+00
 Coeff:      0.152D-02-0.138D-02-0.837D-03-0.456D-05 0.121D-02-0.953D-02
 Coeff:     -0.865D-02-0.271D-01 0.152D+00 0.377D+00 0.516D+00
 Gap=     0.230 Goal=   None    Shift=    0.000
 RMSDP=8.21D-06 MaxDP=2.05D-04 DE=-3.50D-06 OVMax= 3.06D-04

 Cycle  12  Pass 1  IDiag  1:
 E= -361.729365968336     Delta-E=       -0.000002651091 Rises=F Damp=F
 DIIS: error= 2.76D-05 at cycle  12 NSaved=  12.
 NSaved=12 IEnMin=12 EnMin= -361.729365968336     IErMin=12 ErrMin= 2.76D-05
 ErrMax= 2.76D-05 EMaxC= 1.00D-01 BMatC= 2.26D-07 BMatP= 3.77D-06
 IDIUse=1 WtCom= 1.00D+00 WtEn= 0.00D+00
 Coeff-Com:  0.182D-03-0.124D-06-0.515D-04-0.783D-05-0.929D-04-0.106D-02
 Coeff-Com: -0.102D-02-0.423D-02 0.278D-01 0.738D-01 0.127D+00 0.778D+00
 Coeff:      0.182D-03-0.124D-06-0.515D-04-0.783D-05-0.929D-04-0.106D-02
 Coeff:     -0.102D-02-0.423D-02 0.278D-01 0.738D-01 0.127D+00 0.778D+00
 Gap=     0.231 Goal=   None    Shift=    0.000
 RMSDP=2.33D-06 MaxDP=6.46D-05 DE=-2.65D-06 OVMax= 9.74D-05

 Cycle  13  Pass 1  IDiag  1:
 E= -361.729366137341     Delta-E=       -0.000000169005 Rises=F Damp=F
 DIIS: error= 1.87D-06 at cycle  13 NSaved=  13.
 NSaved=13 IEnMin=13 EnMin= -361.729366137341     IErMin=13 ErrMin= 1.87D-06
 ErrMax= 1.87D-06 EMaxC= 1.00D-01 BMatC= 1.07D-09 BMatP= 2.26D-07
 IDIUse=1 WtCom= 1.00D+00 WtEn= 0.00D+00
 Coeff-Com: -0.381D-04 0.514D-04 0.321D-04-0.423D-05-0.691D-04 0.383D-03
 Coeff-Com:  0.386D-03 0.414D-03-0.241D-02-0.545D-02-0.140D-02 0.214D+00
 Coeff-Com:  0.794D+00
 Coeff:     -0.381D-04 0.514D-04 0.321D-04-0.423D-05-0.691D-04 0.383D-03
 Coeff:      0.386D-03 0.414D-03-0.241D-02-0.545D-02-0.140D-02 0.214D+00
 Coeff:      0.794D+00
 Gap=     0.231 Goal=   None    Shift=    0.000
 RMSDP=2.27D-07 MaxDP=5.42D-06 DE=-1.69D-07 OVMax= 1.06D-05

 Cycle  14  Pass 1  IDiag  1:
 E= -361.729366138126     Delta-E=       -0.000000000785 Rises=F Damp=F
 DIIS: error= 1.18D-06 at cycle  14 NSaved=  14.
 NSaved=14 IEnMin=14 EnMin= -361.729366138126     IErMin=14 ErrMin= 1.18D-06
 ErrMax= 1.18D-06 EMaxC= 1.00D-01 BMatC= 3.55D-10 BMatP= 1.07D-09
 IDIUse=1 WtCom= 1.00D+00 WtEn= 0.00D+00
 Coeff-Com: -0.332D-05 0.396D-07 0.729D-05 0.349D-06-0.959D-05 0.500D-04
 Coeff-Com:  0.517D-04 0.183D-03-0.227D-02-0.488D-02-0.738D-02-0.210D-01
 Coeff-Com:  0.782D-01 0.957D+00
 Coeff:     -0.332D-05 0.396D-07 0.729D-05 0.349D-06-0.959D-05 0.500D-04
 Coeff:      0.517D-04 0.183D-03-0.227D-02-0.488D-02-0.738D-02-0.210D-01
 Coeff:      0.782D-01 0.957D+00
 Gap=     0.231 Goal=   None    Shift=    0.000
 RMSDP=1.20D-07 MaxDP=4.82D-06 DE=-7.85D-10 OVMax= 4.99D-06

 Cycle  15  Pass 1  IDiag  1:
 E= -361.729366138426     Delta-E=       -0.000000000300 Rises=F Damp=F
 DIIS: error= 6.56D-08 at cycle  15 NSaved=  15.
 NSaved=15 IEnMin=15 EnMin= -361.729366138426     IErMin=15 ErrMin= 6.56D-08
 ErrMax= 6.56D-08 EMaxC= 1.00D-01 BMatC= 1.11D-12 BMatP= 3.55D-10
 IDIUse=1 WtCom= 1.00D+00 WtEn= 0.00D+00
 Coeff-Com: -0.268D-06 0.155D-06 0.823D-06 0.142D-06-0.367D-06-0.219D-05
 Coeff-Com: -0.543D-05 0.230D-04-0.308D-03-0.637D-03-0.111D-02-0.101D-01
 Coeff-Com: -0.178D-01 0.148D+00 0.882D+00
 Coeff:     -0.268D-06 0.155D-06 0.823D-06 0.142D-06-0.367D-06-0.219D-05
 Coeff:     -0.543D-05 0.230D-04-0.308D-03-0.637D-03-0.111D-02-0.101D-01
 Coeff:     -0.178D-01 0.148D+00 0.882D+00
 Gap=     0.231 Goal=   None    Shift=    0.000
 RMSDP=1.19D-08 MaxDP=2.74D-07 DE=-3.00D-10 OVMax= 6.81D-07

 SCF Done:  E(RB3PW91) =  -361.729366138     A.U. after   15 cycles
             Convg  =    0.1189D-07             -V/T =  2.1082
 KE= 3.264024845324D+02 PE=-1.282855723850D+03 EE= 3.737363461745D+02
 Leave Link  502 at Wed Oct 26 17:42:46 2016, MaxMem= 3370123264 cpu:      81.3
 (Enter /opt/qcapps/g09/l801.exe)
 Range of M.O.s used for correlation:     1   119
 NBasis=   119 NAE=    24 NBE=    24 NFC=     0 NFV=     0
 NROrb=    119 NOA=    24 NOB=    24 NVA=    95 NVB=    95
 Leave Link  801 at Wed Oct 26 17:42:46 2016, MaxMem= 3370123264 cpu:       0.3
 (Enter /opt/qcapps/g09/l1101.exe)
 Using compressed storage, NAtomX=     9.
 Will process  10 centers per pass.
   1 Symmetry operations used in ECPInt.
 ECPInt:  NShTT=     946 NPrTT=    3836 LenC2=     941 LenP2D=    3036.
 LDataN:  DoStor=T MaxTD1= 7 Len=  274
 Leave Link 1101 at Wed Oct 26 17:42:47 2016, MaxMem= 3370123264 cpu:       3.4
 (Enter /opt/qcapps/g09/l1102.exe)
 Symmetrizing basis deriv contribution to polar:
 IMax=3 JMax=2 DiffMx= 0.00D+00
 Leave Link 1102 at Wed Oct 26 17:42:47 2016, MaxMem= 3370123264 cpu:       0.3
 (Enter /opt/qcapps/g09/l1110.exe)
 Forming Gx(P) for the SCF density, NAtomX=     9.
 Integral derivatives from FoFDir/FoFCou, PRISM(SPDF).
 Do as many integral derivatives as possible in FoFDir.
 G2DrvN: MDV=    3370123088.
 G2DrvN: will do    10 centers at a time, making    1 passes doing MaxLOS=3.
 Calling FoFCou, ICntrl=  3107 FMM=F I1Cent=   0 AccDes= 0.00D+00.
 FoFCou: FMM=F IPFlag=           0 FMFlag=      100000 FMFlg1=           0
         NFxFlg=           0 DoJE=F BraDBF=F KetDBF=F FulRan=T
         Omega=  0.000000  0.000000  1.000000  0.000000  0.000000 ICntrl=    3107 IOpCl=  0
         NMat0=    1 NMatS0=    1 NMatT0=    0 NMatD0=    1 NMtDS0=    0 NMtDT0=    0
         I1Cent=           0 NGrid=           0.
 Symmetry not used in FoFCou.
 FoFDir/FoFCou used for L=0 through L=3.
 End of G2Drv Frequency-dependent properties file   721 does not exist.
 End of G2Drv Frequency-dependent properties file   722 does not exist.
 Leave Link 1110 at Wed Oct 26 17:42:59 2016, MaxMem= 3370123264 cpu:      94.6
 (Enter /opt/qcapps/g09/l1002.exe)
 Minotr:  Closed shell wavefunction.
          IDoAtm=111111111
          Direct CPHF calculation.
          Differentiating once with respect to electric field.
                with respect to dipole field.
          Differentiating once with respect to nuclear coordinates.
          Requested convergence is 1.0D-08 RMS, and 1.0D-07 maximum.
          Secondary convergence is 1.0D-12 RMS, and 1.0D-12 maximum.
          NewPWx=T KeepS1=F KeepF1=F KeepIn=T MapXYZ=F SortEE=F KeepMc=T.
          MDV=    3370123170 using IRadAn=       1.
 Generate precomputed XC quadrature information.
          Keep R1 ints in memory in canonical form, NReq=37102209.
 Symmetry not used in FoFDir.
 MinBra= 0 MaxBra= 3 Meth= 1.
 IRaf=       0 NMat=   1 IRICut=       1 DoRegI=T DoRafI=F ISym2E= 0 JSym2E=0.
          Solving linear equations simultaneously, MaxMat=       0.
          There are    30 degrees of freedom in the 1st order CPHF.  IDoFFX=5.
     27 vectors produced by pass  0 Test12= 7.60D-15 3.33D-09 XBig12= 4.74D+01 2.13D+00.
 AX will form    27 AO Fock derivatives at one time.
     27 vectors produced by pass  1 Test12= 7.60D-15 3.33D-09 XBig12= 5.54D+01 1.65D+00.
     27 vectors produced by pass  2 Test12= 7.60D-15 3.33D-09 XBig12= 4.45D-01 1.09D-01.
     27 vectors produced by pass  3 Test12= 7.60D-15 3.33D-09 XBig12= 3.63D-03 1.22D-02.
     27 vectors produced by pass  4 Test12= 7.60D-15 3.33D-09 XBig12= 1.48D-05 5.77D-04.
     26 vectors produced by pass  5 Test12= 7.60D-15 3.33D-09 XBig12= 3.80D-08 3.66D-05.
     14 vectors produced by pass  6 Test12= 7.60D-15 3.33D-09 XBig12= 8.43D-11 1.55D-06.
      3 vectors produced by pass  7 Test12= 7.60D-15 3.33D-09 XBig12= 1.10D-13 6.32D-08.
 Inverted reduced A of dimension   178 with in-core refinement.
 FullF1:  Do perturbations    1 to     3.
 Isotropic polarizability for W=    0.000000       44.23 Bohr**3.
 End of Minotr Frequency-dependent properties file   721 does not exist.
 End of Minotr Frequency-dependent properties file   722 does not exist.
 Leave Link 1002 at Wed Oct 26 17:43:16 2016, MaxMem= 3370123264 cpu:     135.6
 (Enter /opt/qcapps/g09/l601.exe)
 Copying SCF densities to generalized density rwf, IOpCl= 0 IROHF=0.

 **********************************************************************

            Population analysis using the SCF density.

 **********************************************************************

 Orbital symmetries:
       Occupied  (A) (A) (A) (A) (A) (A) (A) (A) (A) (A) (A) (A)
                 (A) (A) (A) (A) (A) (A) (A) (A) (A) (A) (A) (A)
       Virtual   (A) (A) (A) (A) (A) (A) (A) (A) (A) (A) (A) (A)
                 (A) (A) (A) (A) (A) (A) (A) (A) (A) (A) (A) (A)
                 (A) (A) (A) (A) (A) (A) (A) (A) (A) (A) (A) (A)
                 (A) (A) (A) (A) (A) (A) (A) (A) (A) (A) (A) (A)
                 (A) (A) (A) (A) (A) (A) (A) (A) (A) (A) (A) (A)
                 (A) (A) (A) (A) (A) (A) (A) (A) (A) (A) (A) (A)
                 (A) (A) (A) (A) (A) (A) (A) (A) (A) (A) (A) (A)
                 (A) (A) (A) (A) (A) (A) (A) (A) (A) (A) (A)
 The electronic state is 1-A.
 Alpha  occ. eigenvalues --  -19.24250 -19.12092 -19.11481 -19.08907  -2.46225
 Alpha  occ. eigenvalues --   -1.50532  -1.49736  -1.49573  -1.11580  -0.95662
 Alpha  occ. eigenvalues --   -0.94820  -0.84136  -0.63098  -0.50772  -0.47267
 Alpha  occ. eigenvalues --   -0.46363  -0.42780  -0.33923  -0.32975  -0.31956
 Alpha  occ. eigenvalues --   -0.31700  -0.29827  -0.29546  -0.27618
 Alpha virt. eigenvalues --   -0.04566  -0.02537  -0.01405   0.00009   0.01124
 Alpha virt. eigenvalues --    0.01861   0.03466   0.03870   0.04856   0.05619
 Alpha virt. eigenvalues --    0.09130   0.10979   0.12941   0.13261   0.14421
 Alpha virt. eigenvalues --    0.15861   0.16697   0.19808   0.20431   0.23871
 Alpha virt. eigenvalues --    0.25372   0.26111   0.28341   0.53141   0.54827
 Alpha virt. eigenvalues --    0.56050   0.56996   0.59934   0.78034   0.81803
 Alpha virt. eigenvalues --    0.88698   0.89191   0.91103   0.94531   0.95176
 Alpha virt. eigenvalues --    0.99369   1.02027   1.02958   1.05980   1.07817
 Alpha virt. eigenvalues --    1.09385   1.13646   1.14831   1.17204   1.21678
 Alpha virt. eigenvalues --    1.25748   1.27207   1.30027   1.33691   1.36244
 Alpha virt. eigenvalues --    1.38230   1.43034   1.46598   1.47496   1.49011
 Alpha virt. eigenvalues --    1.59740   1.60983   1.63000   1.66472   1.69813
 Alpha virt. eigenvalues --    1.75920   1.78099   1.88325   1.88870   1.95458
 Alpha virt. eigenvalues --    2.00699   2.03396   2.06633   2.12865   2.17439
 Alpha virt. eigenvalues --    2.19557   2.27271   2.31723   2.36147   2.40559
 Alpha virt. eigenvalues --    2.41925   2.47810   2.51217   2.59739   2.60223
 Alpha virt. eigenvalues --    2.63040   2.66936   2.68023   2.80191   2.84889
 Alpha virt. eigenvalues --    2.94914   2.95968   3.34399   3.48102   3.49199
 Alpha virt. eigenvalues --    3.52430  24.38907  24.63398  24.69703  35.58446
     Molecular Orbital Coefficients:
                           1         2         3         4         5
                           O         O         O         O         O
     Eigenvalues --   -19.24250 -19.12092 -19.11481 -19.08907  -2.46225
   1 1   Ti 1S         -0.00004  -0.00015  -0.00014  -0.00007   0.39636
   2        2S         -0.00004  -0.00079  -0.00069  -0.00064   0.71995
   3        3S         -0.00062   0.00060   0.00036   0.00096   0.51372
   4        4S          0.00431   0.00571   0.00573   0.00665   0.00712
   5        5S         -0.00199  -0.00257  -0.00196  -0.00238  -0.00338
   6        6S          0.00040   0.00055   0.00043   0.00052   0.00097
   7        7PX        -0.00009   0.00010  -0.00003   0.00000   0.00005
   8        7PY         0.00005   0.00002  -0.00012   0.00002  -0.00068
   9        7PZ         0.00005   0.00005  -0.00001  -0.00004   0.00127
  10        8PX        -0.00039   0.00051  -0.00017   0.00000   0.00013
  11        8PY         0.00022   0.00013  -0.00062   0.00015  -0.00461
  12        8PZ         0.00023   0.00029  -0.00006  -0.00029   0.00907
  13        9PX         0.00055  -0.00139   0.00043   0.00007   0.00168
  14        9PY        -0.00035  -0.00036   0.00156  -0.00088  -0.00139
  15        9PZ        -0.00033  -0.00078   0.00021   0.00173  -0.00093
  16       10PX         0.00298  -0.00424   0.00198   0.00079   0.00038
  17       10PY        -0.00135  -0.00051   0.00445  -0.00296  -0.00004
  18       10PZ        -0.00136  -0.00222  -0.00006   0.00442  -0.00066
  19       11PX        -0.00076   0.00075  -0.00030  -0.00015   0.00005
  20       11PY         0.00032   0.00028  -0.00099   0.00052  -0.00010
  21       11PZ         0.00037   0.00056   0.00000  -0.00098   0.00028
  22       12D 0        0.00004  -0.00001  -0.00007   0.00015  -0.00171
  23       12D+1        0.00000   0.00020   0.00007   0.00004  -0.00186
  24       12D-1        0.00002   0.00000  -0.00003  -0.00015   0.00320
  25       12D+2       -0.00003   0.00012  -0.00021  -0.00006   0.00127
  26       12D-2       -0.00001   0.00008   0.00012   0.00005  -0.00139
  27       13D 0       -0.00089  -0.00049  -0.00144   0.00117   0.00051
  28       13D+1       -0.00095   0.00179  -0.00035   0.00029  -0.00075
  29       13D-1        0.00038   0.00070  -0.00001  -0.00137  -0.00049
  30       13D+2        0.00134   0.00128  -0.00167  -0.00008  -0.00017
  31       13D-2       -0.00105   0.00115   0.00128  -0.00043  -0.00079
  32       14D 0        0.00020   0.00028  -0.00034   0.00055  -0.00011
  33       14D+1       -0.00037   0.00070  -0.00029   0.00015   0.00013
  34       14D-1        0.00024   0.00012   0.00017  -0.00052   0.00006
  35       14D+2       -0.00003  -0.00001  -0.00025  -0.00001   0.00011
  36       14D-2       -0.00036   0.00024   0.00049  -0.00040  -0.00003
  37       15F 0        0.00035   0.00011   0.00011  -0.00020   0.00033
  38       15F+1       -0.00006   0.00005  -0.00003  -0.00005   0.00003
  39       15F-1        0.00004  -0.00001  -0.00019   0.00051  -0.00072
  40       15F+2       -0.00036  -0.00009   0.00000   0.00014  -0.00033
  41       15F-2        0.00026  -0.00012  -0.00004   0.00009  -0.00020
  42       15F+3        0.00006  -0.00012  -0.00011   0.00003  -0.00016
  43       15F-3       -0.00046  -0.00015  -0.00026  -0.00013   0.00000
  44 2   O  1S          0.00005   0.00020   0.00019   0.99514  -0.00607
  45        2S          0.00017   0.00011   0.00012   0.02882   0.00979
  46        2PX         0.00009  -0.00008   0.00000  -0.00003  -0.00085
  47        2PY        -0.00003   0.00005   0.00010   0.00046   0.00519
  48        2PZ        -0.00005  -0.00009  -0.00008  -0.00095  -0.00992
  49        3S         -0.00020   0.00012  -0.00002  -0.01612   0.00934
  50        3PX        -0.00040   0.00016   0.00011   0.00002  -0.00039
  51        3PY         0.00008  -0.00027  -0.00030  -0.00130   0.00273
  52        3PZ         0.00033   0.00029   0.00047   0.00265  -0.00506
  53        4D 0       -0.00001   0.00001  -0.00004  -0.00027   0.00241
  54        4D+1        0.00005  -0.00005  -0.00007  -0.00001   0.00043
  55        4D-1        0.00005   0.00007   0.00002   0.00028  -0.00259
  56        4D+2       -0.00006  -0.00003   0.00008   0.00006  -0.00066
  57        4D-2        0.00008  -0.00012  -0.00005   0.00002  -0.00020
  58 3   O  1S          0.00007   0.00045   0.99505  -0.00019  -0.00245
  59        2S          0.00019   0.00006   0.02885   0.00005   0.00373
  60        2PX         0.00006  -0.00008  -0.00090  -0.00004  -0.00146
  61        2PY        -0.00007  -0.00010   0.00042  -0.00011  -0.00423
  62        2PZ        -0.00005   0.00002  -0.00116   0.00004  -0.00021
  63        3S         -0.00032  -0.00003  -0.01450   0.00014   0.00512
  64        3PX        -0.00024   0.00014   0.00079   0.00013  -0.00099
  65        3PY         0.00024   0.00061   0.00303   0.00019  -0.00362
  66        3PZ         0.00027  -0.00024   0.00018  -0.00010   0.00016
  67        4D 0        0.00007   0.00005   0.00024  -0.00009  -0.00079
  68        4D+1        0.00004  -0.00005   0.00037  -0.00005   0.00006
  69        4D-1       -0.00002   0.00003  -0.00080   0.00004   0.00006
  70        4D+2        0.00000   0.00004  -0.00004  -0.00001  -0.00108
  71        4D-2        0.00004   0.00001  -0.00069   0.00000   0.00081
  72 4   H  1S         -0.00002  -0.00006  -0.00121  -0.00011   0.00019
  73        2S          0.00035  -0.00033   0.00038   0.00057   0.00028
  74        3PX         0.00001  -0.00003  -0.00082  -0.00002   0.00006
  75        3PY        -0.00006   0.00001   0.00136  -0.00006   0.00001
  76        3PZ        -0.00002  -0.00001  -0.00126  -0.00001   0.00006
  77 5   O  1S          0.00005   0.99505  -0.00045  -0.00019  -0.00271
  78        2S          0.00017   0.02884   0.00003   0.00009   0.00415
  79        2PX         0.00004  -0.00058   0.00004   0.00009   0.00405
  80        2PY        -0.00004  -0.00096   0.00001   0.00000   0.00097
  81        2PZ         0.00001   0.00098   0.00008   0.00012   0.00267
  82        3S         -0.00058  -0.01450   0.00014  -0.00009   0.00576
  83        3PX        -0.00016  -0.00255  -0.00010  -0.00026   0.00332
  84        3PY         0.00008  -0.00054   0.00018  -0.00004   0.00066
  85        3PZ        -0.00039  -0.00163  -0.00039  -0.00040   0.00223
  86        4D 0       -0.00006  -0.00039   0.00000  -0.00006  -0.00007
  87        4D+1       -0.00007  -0.00072  -0.00010   0.00001   0.00132
  88        4D-1       -0.00009  -0.00035   0.00008   0.00008   0.00027
  89        4D+2       -0.00002  -0.00010   0.00003   0.00002   0.00091
  90        4D-2       -0.00007   0.00070   0.00005  -0.00006   0.00045
  91 6   H  1S          0.00000  -0.00121   0.00000   0.00003   0.00013
  92        2S          0.00064   0.00046   0.00035   0.00002   0.00027
  93        3PX         0.00007  -0.00141   0.00003   0.00002   0.00002
  94        3PY         0.00002  -0.00127  -0.00002   0.00000   0.00006
  95        3PZ         0.00003   0.00067   0.00005   0.00003  -0.00006
  96 7   O  1S          0.99497  -0.00003  -0.00005  -0.00003  -0.00090
  97        2S          0.02892   0.00011   0.00020   0.00020   0.00093
  98        2PX         0.00126  -0.00002  -0.00006  -0.00005  -0.00131
  99        2PY         0.00054   0.00001   0.00009   0.00001   0.00062
 100        2PZ         0.00120   0.00000   0.00005   0.00008   0.00066
 101        3S         -0.01273  -0.00038  -0.00041  -0.00059   0.00272
 102        3PX         0.00154  -0.00027   0.00017   0.00020  -0.00140
 103        3PY        -0.00111  -0.00006  -0.00039  -0.00008   0.00078
 104        3PZ        -0.00137  -0.00011  -0.00023  -0.00047   0.00111
 105        4D 0       -0.00013  -0.00001   0.00005  -0.00006  -0.00019
 106        4D+1        0.00040  -0.00004   0.00003   0.00006  -0.00059
 107        4D-1       -0.00085  -0.00002  -0.00002   0.00001   0.00027
 108        4D+2       -0.00031   0.00001   0.00006  -0.00001   0.00037
 109        4D-2        0.00051  -0.00003   0.00002  -0.00002  -0.00050
 110 8   H  1S         -0.00078   0.00000   0.00019  -0.00004  -0.00001
 111        2S          0.00103   0.00084  -0.00076   0.00044  -0.00015
 112        3PX         0.00116  -0.00006   0.00004  -0.00004   0.00005
 113        3PY         0.00136  -0.00002  -0.00005  -0.00001  -0.00010
 114        3PZ        -0.00019   0.00003  -0.00002   0.00005  -0.00005
 115 9   H  1S         -0.00071  -0.00001  -0.00004   0.00017   0.00002
 116        2S          0.00088   0.00086   0.00040  -0.00073  -0.00053
 117        3PX         0.00068  -0.00006  -0.00004   0.00006   0.00008
 118        3PY        -0.00096   0.00005   0.00005   0.00000  -0.00002
 119        3PZ         0.00134  -0.00001   0.00002  -0.00007  -0.00010
                           6         7         8         9        10
                           O         O         O         O         O
     Eigenvalues --    -1.50532  -1.49736  -1.49573  -1.11580  -0.95662
   1 1   Ti 1S         -0.00816   0.00105   0.00072  -0.01072  -0.03657
   2        2S         -0.01419   0.00115   0.00318  -0.02440  -0.08381
   3        3S         -0.01446   0.00359  -0.00311  -0.00890  -0.03792
   4        4S         -0.00157  -0.00130   0.00046  -0.00639  -0.00162
   5        5S         -0.00018   0.00055   0.00004   0.01094   0.01473
   6        6S          0.00008  -0.00009  -0.00004  -0.00097  -0.00196
   7        7PX         0.01822   0.09337  -0.04437  -0.00711   0.00967
   8        7PY        -0.04208   0.04690   0.08311   0.00310  -0.00305
   9        7PZ         0.09119   0.00323   0.04780   0.00311   0.00529
  10        8PX         0.12408   0.63576  -0.30198  -0.04970   0.06844
  11        8PY        -0.28653   0.31943   0.56595   0.02168  -0.02152
  12        8PZ         0.62079   0.02203   0.32537   0.02170   0.03734
  13        9PX         0.07024   0.35416  -0.16715  -0.02395   0.03333
  14        9PY        -0.16287   0.17871   0.31450   0.01032  -0.00991
  15        9PZ         0.35195   0.01223   0.18034   0.00962   0.01803
  16       10PX         0.00025   0.00629  -0.00278  -0.00406   0.00743
  17       10PY        -0.00350   0.00331   0.00597   0.00204  -0.00216
  18       10PZ         0.00572   0.00005   0.00310   0.00189   0.00190
  19       11PX        -0.00010  -0.00074   0.00051   0.00679  -0.00486
  20       11PY         0.00044  -0.00062  -0.00103  -0.00256   0.00148
  21       11PZ        -0.00147  -0.00006  -0.00072  -0.00220  -0.00287
  22       12D 0        0.00880  -0.00140   0.00207  -0.00367  -0.01161
  23       12D+1        0.00132   0.00044  -0.00050  -0.00740   0.02883
  24       12D-1       -0.01052   0.00164   0.00081   0.00297   0.00225
  25       12D+2       -0.00309   0.00019   0.00045   0.00704   0.00510
  26       12D-2       -0.00197  -0.00125   0.00271  -0.00704   0.02297
  27       13D 0        0.00170  -0.00158  -0.00167   0.00057  -0.00218
  28       13D+1        0.00039  -0.00394   0.00093  -0.00027  -0.00190
  29       13D-1       -0.00293  -0.00137  -0.00167  -0.00009  -0.00133
  30       13D+2       -0.00083  -0.00194  -0.00176  -0.00078  -0.00081
  31       13D-2       -0.00175   0.00047   0.00148   0.00061  -0.00005
  32       14D 0       -0.00087   0.00056   0.00027  -0.00242  -0.00156
  33       14D+1        0.00004   0.00064  -0.00047  -0.00082   0.00082
  34       14D-1        0.00152   0.00003   0.00027  -0.00049  -0.00019
  35       14D+2        0.00098   0.00038   0.00039   0.00296   0.00112
  36       14D-2        0.00032  -0.00056  -0.00050  -0.00136   0.00097
  37       15F 0        0.00164  -0.00138  -0.00073   0.00111   0.00342
  38       15F+1        0.00027  -0.00032  -0.00033  -0.00057  -0.00047
  39       15F-1       -0.00346  -0.00039  -0.00137   0.00042  -0.00315
  40       15F+2       -0.00043   0.00123   0.00031  -0.00104  -0.00368
  41       15F-2       -0.00042   0.00148  -0.00083   0.00106  -0.00310
  42       15F+3        0.00068   0.00073  -0.00096   0.00059  -0.00422
  43       15F-3        0.00122  -0.00055  -0.00010  -0.00141  -0.00495
  44 2   O  1S         -0.03370   0.00382   0.00008  -0.00180  -0.01496
  45        2S          0.06937  -0.00797  -0.00011   0.00277   0.03098
  46        2PX        -0.00286   0.00958  -0.00450  -0.00001   0.00138
  47        2PY         0.02400   0.00122   0.00806   0.00021   0.00282
  48        2PZ        -0.04483   0.00625   0.00479  -0.00051  -0.00670
  49        3S          0.04560  -0.00471  -0.00071   0.00578   0.03479
  50        3PX        -0.00021   0.00501  -0.00191   0.00181  -0.00018
  51        3PY         0.00561   0.00190   0.00386   0.00009   0.00431
  52        3PZ        -0.01059   0.00183   0.00267  -0.00239  -0.00636
  53        4D 0        0.00450  -0.00102  -0.00189   0.00030   0.00064
  54        4D+1        0.00036  -0.00230   0.00090  -0.00060   0.00028
  55        4D-1       -0.00480  -0.00029  -0.00124  -0.00004  -0.00072
  56        4D+2       -0.00121  -0.00065  -0.00090   0.00024  -0.00014
  57        4D-2       -0.00041   0.00111  -0.00064  -0.00010   0.00046
  58 3   O  1S          0.00623  -0.01274  -0.01164  -0.00194  -0.10642
  59        2S         -0.01280   0.02686   0.02463   0.00335   0.23193
  60        2PX         0.00415  -0.00341  -0.00885  -0.00026  -0.02390
  61        2PY         0.00774  -0.01774  -0.01440  -0.00019   0.01851
  62        2PZ         0.00441  -0.00167   0.00069  -0.00047  -0.03279
  63        3S         -0.01065   0.02070   0.01829   0.00528   0.23788
  64        3PX         0.00275   0.00002  -0.00408   0.00066  -0.01360
  65        3PY         0.00185  -0.00640  -0.00379  -0.00198  -0.00867
  66        3PZ         0.00416  -0.00036   0.00057  -0.00080  -0.01328
  67        4D 0        0.00038  -0.00091  -0.00089  -0.00021  -0.00180
  68        4D+1       -0.00073   0.00003  -0.00003  -0.00013   0.00171
  69        4D-1       -0.00147   0.00023  -0.00048   0.00020  -0.00230
  70        4D+2        0.00028  -0.00190  -0.00035  -0.00024  -0.00339
  71        4D-2       -0.00088   0.00015   0.00166  -0.00027   0.00024
  72 4   H  1S         -0.00166   0.00284   0.00285   0.00117   0.08241
  73        2S          0.00181  -0.00067  -0.00127  -0.00019   0.01041
  74        3PX        -0.00016   0.00007   0.00013   0.00004   0.00450
  75        3PY         0.00053  -0.00073  -0.00078  -0.00008  -0.00849
  76        3PZ        -0.00032   0.00028   0.00036   0.00013   0.00692
  77 5   O  1S          0.01006   0.01709   0.00117  -0.00247  -0.18874
  78        2S         -0.02142  -0.03588  -0.00236   0.00490   0.41185
  79        2PX        -0.01264  -0.01819  -0.00373   0.00020  -0.04341
  80        2PY        -0.00464  -0.00264   0.00375   0.00030  -0.05348
  81        2PZ        -0.00546  -0.01576   0.00131   0.00153   0.04341
  82        3S         -0.01574  -0.02711  -0.00222   0.00581   0.42749
  83        3PX        -0.00473  -0.00444  -0.00193   0.00193   0.00811
  84        3PY        -0.00296   0.00066   0.00255  -0.00017  -0.01339
  85        3PZ        -0.00045  -0.00649   0.00072   0.00072   0.02937
  86        4D 0        0.00107  -0.00062   0.00067   0.00014  -0.00216
  87        4D+1       -0.00058  -0.00225  -0.00006   0.00020   0.00308
  88        4D-1       -0.00064  -0.00014   0.00081   0.00020  -0.00099
  89        4D+2       -0.00101  -0.00118  -0.00091   0.00004   0.00416
  90        4D-2       -0.00116  -0.00024   0.00082   0.00004   0.00594
  91 6   H  1S         -0.00188  -0.00403  -0.00021   0.00165   0.14814
  92        2S         -0.00046   0.00213   0.00022  -0.00091   0.01638
  93        3PX        -0.00045  -0.00115  -0.00008   0.00016   0.01548
  94        3PY        -0.00019  -0.00069  -0.00003   0.00023   0.01324
  95        3PZ        -0.00012  -0.00001   0.00000  -0.00010  -0.00625
  96 7   O  1S          0.00052  -0.00600   0.00867  -0.21356   0.00348
  97        2S         -0.00134   0.01189  -0.01788   0.47119  -0.00837
  98        2PX         0.00097  -0.00438   0.00804   0.08371  -0.00367
  99        2PY        -0.00107   0.00413  -0.00374   0.01957   0.00117
 100        2PZ         0.00097   0.00405  -0.00520   0.05409   0.00015
 101        3S         -0.00028   0.01346  -0.01769   0.45060  -0.00730
 102        3PX         0.00070  -0.00174   0.00492   0.01910  -0.00093
 103        3PY        -0.00141   0.00372  -0.00139   0.01455   0.00141
 104        3PZ         0.00226   0.00309  -0.00321   0.02848   0.00015
 105        4D 0        0.00084  -0.00005   0.00036  -0.00277   0.00009
 106        4D+1       -0.00053  -0.00069   0.00102   0.00033  -0.00007
 107        4D-1        0.00010   0.00074  -0.00004  -0.00262   0.00026
 108        4D+2       -0.00003  -0.00031  -0.00097   0.00291  -0.00040
 109        4D-2        0.00048  -0.00086   0.00051  -0.00026   0.00008
 110 8   H  1S         -0.00022   0.00182  -0.00253   0.14391  -0.00261
 111        2S          0.00046  -0.00105  -0.00012   0.00205  -0.00245
 112        3PX        -0.00004  -0.00037   0.00048  -0.01395   0.00026
 113        3PY         0.00008  -0.00031   0.00031  -0.01863   0.00059
 114        3PZ        -0.00010   0.00006  -0.00019   0.00571  -0.00010
 115 9   H  1S          0.00000   0.00191  -0.00292   0.14244  -0.00275
 116        2S         -0.00084  -0.00048   0.00065   0.00087  -0.00253
 117        3PX        -0.00005  -0.00036   0.00043  -0.00679   0.00008
 118        3PY        -0.00001   0.00026  -0.00054   0.01542  -0.00035
 119        3PZ         0.00000  -0.00026   0.00033  -0.01701   0.00038
                          11        12        13        14        15
                           O         O         O         O         O
     Eigenvalues --    -0.94820  -0.84136  -0.63098  -0.50772  -0.47267
   1 1   Ti 1S         -0.00958  -0.04632  -0.00009   0.02731  -0.04821
   2        2S         -0.02218  -0.10868  -0.00042   0.06526  -0.11864
   3        3S         -0.00924  -0.05128   0.00039   0.03528  -0.05677
   4        4S          0.00008   0.00970  -0.00034  -0.08951   0.11715
   5        5S          0.00331   0.00942   0.00176   0.01041  -0.02541
   6        6S         -0.00033  -0.00157  -0.00032  -0.00007   0.00368
   7        7PX        -0.01036  -0.00251   0.00018   0.00734   0.00873
   8        7PY        -0.01444   0.01358  -0.00194  -0.00435  -0.00249
   9        7PZ        -0.00421  -0.02490   0.00046  -0.00638   0.00938
  10        8PX        -0.07335  -0.01795   0.00127   0.05358   0.06438
  11        8PY        -0.10221   0.09705  -0.01400  -0.03178  -0.01805
  12        8PZ        -0.02980  -0.17806   0.00333  -0.04655   0.06864
  13        9PX        -0.03552  -0.00901   0.00039   0.01713   0.02143
  14        9PY        -0.04951   0.04826  -0.00537  -0.00928  -0.00617
  15        9PZ        -0.01422  -0.08835   0.00171  -0.01399   0.02409
  16       10PX        -0.00853   0.00053   0.00127  -0.04411  -0.00941
  17       10PY        -0.00684   0.00324   0.01166   0.01991   0.01137
  18       10PZ        -0.00299  -0.00618  -0.00576   0.02893  -0.02859
  19       11PX         0.00536   0.00084   0.00040   0.01003   0.00415
  20       11PY         0.00777  -0.00410   0.00104  -0.00186   0.00328
  21       11PZ         0.00205   0.00832  -0.00069   0.00071   0.00335
  22       12D 0       -0.01394   0.07348   0.01167   0.00834  -0.00215
  23       12D+1       -0.01596   0.01250  -0.00962   0.05496   0.14299
  24       12D-1       -0.00749  -0.07655  -0.00570  -0.03433   0.03262
  25       12D+2       -0.04069  -0.01867   0.00699  -0.02656   0.06023
  26       12D-2        0.00914  -0.00837   0.01634   0.04291   0.04148
  27       13D 0        0.00128   0.00844   0.00313   0.00584   0.00366
  28       13D+1        0.00071   0.00048  -0.00686   0.02279   0.04402
  29       13D-1       -0.00328  -0.00956  -0.00083  -0.00938   0.01106
[...]
    XXX  X                                                                      X                 X        X      XXXX               
    XX   X                                                                      X                 X        X      XXXX               
    XX                                                                                            X        X      XXXX               
     X                                                                                            X        X      XXXX               
     X                                                                                            X        X      XXXX               
     X                                                                                            X        X      XXXX               
                                                                                                  X        X       XX                
                                                                                                  X        X        X                
                                                                                                  X        X        X                
                                                                                                  X                 X                
                                                                                                  X                 X                
                                                                                                  X                 X                
                                                                                                  X                 X                
                                                                                                                    X                
                                                                                                                    X                
 
 ***** Axes restored to original set *****
 -------------------------------------------------------------------
 Center     Atomic                   Forces (Hartrees/Bohr)
 Number     Number              X              Y              Z
 -------------------------------------------------------------------
      1       22           0.000004111   -0.000000654   -0.000000043
      2        8          -0.000001625   -0.000000545   -0.000000713
      3        8          -0.000002377    0.000001384    0.000000614
      4        1           0.000000757    0.000000413    0.000001143
      5        8          -0.000005331    0.000002048    0.000000223
      6        1           0.000000984   -0.000000788   -0.000000594
      7        8          -0.000000549   -0.000001534    0.000000675
      8        1           0.000001981    0.000000442   -0.000000905
      9        1           0.000002047   -0.000000767   -0.000000401
 -------------------------------------------------------------------
 Cartesian Forces:  Max     0.000005331 RMS     0.000001704
 Z-matrix is all fixed cartesians, so copy forces.
 Force constants in Cartesian coordinates: 
                1             2             3             4             5 
      1  0.446633D+00
      2 -0.297917D-01  0.635894D+00
      3  0.534255D-01  0.150717D-03  0.183893D+00
      4 -0.592220D-01  0.548111D-01 -0.136863D-01  0.344375D-01
      5  0.511794D-01 -0.474062D+00  0.704147D-01 -0.596864D-01  0.484666D+00
      6 -0.117115D-01  0.601268D-01 -0.340509D-01  0.101846D-01 -0.649680D-01
      7 -0.194394D+00  0.328353D-01  0.375109D-01  0.521957D-02  0.313543D-01
      8  0.576833D-01 -0.500428D-01 -0.138471D-01  0.702488D-02 -0.107059D-02
      9  0.365712D-01 -0.861280D-02 -0.241804D-01 -0.153039D-02 -0.752632D-02
     10 -0.124432D-01  0.149026D-01  0.608864D-02  0.118484D-02 -0.124009D-02
     11 -0.194728D-02 -0.518751D-02 -0.177775D-02  0.165632D-02  0.204493D-02
     12  0.323027D-03 -0.372280D-02  0.186926D-02 -0.116038D-02  0.241353D-02
     13 -0.155534D+00 -0.768466D-01 -0.667059D-01  0.159327D-01 -0.241780D-01
     14 -0.648822D-01 -0.883097D-01 -0.383728D-01 -0.767494D-02 -0.109423D-01
     15 -0.655190D-01 -0.430934D-01 -0.592328D-01  0.563163D-02 -0.112743D-01
     16 -0.120859D-01  0.146875D-02 -0.105060D-01  0.149994D-02  0.207048D-02
     17 -0.157009D-01  0.380888D-03 -0.813226D-02  0.372581D-02 -0.202174D-02
     18 -0.964513D-02  0.118173D-02  0.306860D-02  0.278417D-02  0.702324D-03
     19 -0.190521D-01  0.502619D-02 -0.602020D-02  0.364796D-02 -0.415063D-03
     20  0.601428D-02 -0.242179D-01 -0.863931D-02  0.440342D-03  0.581733D-02
     21  0.813209D-02  0.738609D-02 -0.558213D-01 -0.308240D-02  0.741292D-02
     22  0.146503D-02 -0.108097D-02 -0.321149D-02 -0.982532D-04 -0.464142D-03
     23 -0.134502D-02  0.392661D-02  0.484223D-02 -0.763762D-03 -0.492557D-03
     24 -0.137013D-01  0.443788D-02 -0.688127D-02  0.106569D-02 -0.102735D-02
     25  0.463439D-02 -0.132473D-02  0.310485D-02 -0.260223D-02  0.137948D-02
     26 -0.120989D-02  0.161858D-02 -0.463839D-02  0.466601D-03 -0.393843D-02
     27  0.212517D-02 -0.178542D-01 -0.866451D-02 -0.206611D-03  0.385241D-02
                6             7             8             9            10 
      6  0.261336D-01
      7 -0.509620D-02  0.237482D+00
      8 -0.330369D-02 -0.186867D+00  0.481637D+00
      9  0.130306D-02 -0.808141D-01  0.180045D+00  0.850811D-01
     10  0.900923D-03 -0.383952D-01  0.118909D+00  0.417338D-01  0.476750D-01
     11 -0.189878D-03  0.131880D+00 -0.443820D+00 -0.165171D+00 -0.130037D+00
     12  0.651733D-03  0.470003D-01 -0.165588D+00 -0.683611D-01 -0.471456D-01
     13  0.449813D-02 -0.102718D-01  0.380779D-02 -0.103778D-02  0.142344D-02
     14 -0.404686D-02 -0.966323D-02  0.119389D-01  0.334521D-02 -0.200309D-02
     15  0.964383D-02 -0.543885D-02  0.628358D-02  0.572620D-02 -0.130272D-02
     16  0.306249D-02  0.123541D-02 -0.103243D-02 -0.976597D-04  0.125783D-03
     17  0.184855D-02  0.371356D-03  0.584628D-03 -0.290257D-04 -0.372765D-03
     18 -0.254194D-02  0.140700D-02 -0.533754D-03 -0.195226D-03 -0.169936D-03
     19 -0.287564D-02  0.247347D-02 -0.294261D-04  0.570171D-02  0.317301D-03
     20  0.102487D-01 -0.147267D-02  0.346042D-02 -0.373043D-02 -0.237568D-03
     21 -0.606941D-02  0.605129D-02 -0.399907D-02 -0.312327D-02 -0.529319D-03
     22  0.978260D-03 -0.301206D-02  0.994519D-03 -0.646581D-03  0.219993D-03
     23  0.523391D-04  0.176051D-02 -0.269212D-02  0.819403D-03 -0.712740D-05
     24 -0.820198D-03  0.975333D-03 -0.436716D-03  0.428796D-02  0.370970D-03
     25  0.589613D-04 -0.337465D-03 -0.490216D-03  0.119779D-03 -0.107981D-03
     26  0.231930D-03 -0.198955D-03  0.472466D-05  0.860407D-03  0.866558D-04
     27  0.575015D-02 -0.159576D-02  0.138025D-02 -0.538319D-03  0.531883D-04
               11            12            13            14            15 
     11  0.448501D+00
     12  0.166517D+00  0.678701D-01
     13 -0.151791D-02  0.257119D-03  0.523157D+00
     14 -0.165831D-02  0.553426D-03 -0.524387D-01  0.149253D+00
     15 -0.261041D-03 -0.159134D-02  0.271052D+00 -0.346601D-01  0.169401D+00
     16  0.147603D-03 -0.254458D-04 -0.376096D+00  0.135965D+00 -0.202803D+00
     17  0.947134D-04  0.776722D-04  0.150461D+00 -0.616450D-01  0.839333D-01
     18  0.250827D-03  0.556232D-04 -0.204103D+00  0.762604D-01 -0.123956D+00
     19  0.597745D-04  0.615656D-03  0.216584D-02  0.603829D-03 -0.184066D-02
     20 -0.276830D-03  0.898923D-03  0.802119D-03  0.189751D-02 -0.601719D-03
     21  0.839441D-03 -0.635884D-03 -0.674075D-02 -0.519615D-02 -0.618811D-03
     22 -0.228547D-03  0.338920D-03  0.295690D-03  0.164832D-03  0.200362D-03
     23  0.288868D-03 -0.102975D-02 -0.327901D-03 -0.821047D-03 -0.585929D-03
     24 -0.719315D-04  0.242734D-04  0.129200D-02  0.752685D-03  0.146414D-03
     25 -0.130864D-04 -0.203670D-03 -0.107251D-02 -0.717605D-04  0.193390D-04
     26  0.135774D-04 -0.119975D-03  0.238143D-03  0.287086D-03  0.259573D-03
     27 -0.135651D-03  0.117396D-03  0.148812D-02  0.136423D-02  0.480663D-03
               16            17            18            19            20 
     16  0.385262D+00
     17 -0.138563D+00  0.625263D-01
     18  0.209756D+00 -0.776197D-01  0.123614D+00
     19 -0.920683D-04  0.145851D-03  0.252454D-03  0.482724D+00
     20 -0.862006D-04  0.718752D-04 -0.262993D-03 -0.182766D+00  0.565774D+00
     21  0.104961D-02 -0.524121D-04  0.134068D-03  0.158523D+00  0.103298D+00
     22 -0.262713D-04  0.259401D-05 -0.820936D-04 -0.427117D+00  0.148516D+00
     23  0.122571D-03 -0.225859D-04  0.474184D-04  0.100110D+00 -0.784473D-01
     24 -0.163098D-03  0.231384D-05 -0.216603D-04 -0.156606D+00  0.359613D-01
     25  0.177126D-03 -0.696325D-04 -0.198898D-03 -0.450680D-01  0.287902D-01
     26 -0.926328D-04  0.309162D-04 -0.262595D-04  0.772648D-01 -0.474079D+00
     27 -0.273133D-03 -0.285112D-04 -0.157918D-03  0.224905D-02 -0.137172D+00
               21            22            23            24            25 
     21  0.198205D+00
     22 -0.148947D+00  0.432857D+00
     23  0.143899D-01 -0.141674D+00  0.888307D-01
     24 -0.737056D-01  0.154574D+00 -0.342426D-01  0.728134D-01
     25 -0.144571D-01 -0.458460D-02  0.421245D-01  0.121922D-01  0.489612D-01
     26 -0.124078D+00 -0.622999D-02 -0.105706D-01 -0.537551D-02 -0.703247D-01
     27 -0.583648D-01 -0.320455D-02  0.157070D-01  0.415668D-02 -0.635465D-03
               26            27 
     26  0.486633D+00
     27  0.132887D+00  0.572207D-01
 Leave Link  716 at Wed Oct 26 17:43:48 2016, MaxMem= 3370123264 cpu:       1.3
 (Enter /opt/qcapps/g09/l103.exe)

 GradGradGradGradGradGradGradGradGradGradGradGradGradGradGradGradGradGrad
 Berny optimization.
 Search for a local minimum.
 Step number   1 out of a maximum of    2
 All quantities printed in internal units (Hartrees-Bohrs-Radians)
 Second derivative matrix not updated -- analytic derivatives used.
 ITU=  0
     Eigenvalues ---    0.00094   0.00180   0.00311   0.00412   0.00607
     Eigenvalues ---    0.00968   0.01449   0.02173   0.03221   0.03771
     Eigenvalues ---    0.05515   0.06812   0.12483   0.18026   0.30827
     Eigenvalues ---    0.54795   0.84748   1.01354   1.09483   1.11144
     Eigenvalues ---    1.14040
 Angle between quadratic step and forces=  69.20 degrees.
 Linear search not attempted -- first point.
 TrRot= -0.000085 -0.000016  0.000033 -0.000002 -0.000004 -0.000002
 Variable       Old X    -DE/DX   Delta X   Delta X   Delta X     New X
                                 (Linear)    (Quad)   (Total)
    X1       -0.33741   0.00000   0.00000  -0.00023  -0.00031  -0.33772
    Y1       -0.16220   0.00000   0.00000   0.00000  -0.00002  -0.16222
    Z1        0.43230   0.00000   0.00000  -0.00004  -0.00001   0.43229
    X2       -0.75454   0.00000   0.00000  -0.00016  -0.00023  -0.75478
    Y2        2.85552   0.00000   0.00000  -0.00002  -0.00003   2.85549
    Z2        0.05059   0.00000   0.00000  -0.00017  -0.00014   0.05044
    X3        2.95463   0.00000   0.00000  -0.00010  -0.00019   2.95444
    Y3       -1.20438   0.00000   0.00000   0.00004   0.00001  -1.20437
    Z3       -0.08771   0.00000   0.00000   0.00061   0.00065  -0.08706
    X4        3.40469   0.00000   0.00000   0.00023   0.00013   3.40483
    Y4       -2.85598   0.00000   0.00000   0.00004   0.00001  -2.85596
    Z4       -0.70292   0.00000   0.00000   0.00085   0.00090  -0.70202
    X5       -2.87237  -0.00001   0.00000  -0.00025  -0.00035  -2.87271
    Y5       -2.13681   0.00000   0.00000   0.00011   0.00010  -2.13671
    Z5       -0.81592   0.00000   0.00000  -0.00018  -0.00016  -0.81608
    X6       -4.37553   0.00000   0.00000  -0.00008  -0.00017  -4.37570
    Y6       -1.54958   0.00000   0.00000   0.00015   0.00016  -1.54943
    Z6       -1.65226   0.00000   0.00000  -0.00046  -0.00044  -1.65270
    X7       -0.18310   0.00000   0.00000   0.00037   0.00026  -0.18284
    Y7       -0.09533   0.00000   0.00000  -0.00021  -0.00022  -0.09556
    Z7        4.47678   0.00000   0.00000  -0.00004   0.00000   4.47677
    X8        1.46977   0.00000   0.00000   0.00092   0.00082   1.47059
    Y8       -0.61358   0.00000   0.00000   0.00033   0.00031  -0.61327
    Z8        5.05799   0.00000   0.00000  -0.00109  -0.00106   5.05694
    X9       -0.39397   0.00000   0.00000   0.00013   0.00003  -0.39393
    Y9        1.65723   0.00000   0.00000  -0.00031  -0.00032   1.65690
    Z9        4.95481   0.00000   0.00000   0.00023   0.00026   4.95507
         Item               Value     Threshold  Converged?
 Maximum Force            0.000005     0.000450     YES
 RMS     Force            0.000002     0.000300     YES
 Maximum Displacement     0.001055     0.001800     YES
 RMS     Displacement     0.000386     0.001200     YES
 Predicted change in Energy=-3.147807D-09
 Optimization completed.
    -- Stationary point found.
 GradGradGradGradGradGradGradGradGradGradGradGradGradGradGradGradGradGrad

 Leave Link  103 at Wed Oct 26 17:43:48 2016, MaxMem= 3370123264 cpu:       0.3
 (Enter /opt/qcapps/g09/l9999.exe)

 Test job not archived.
 1\1\GINC-TITAN11\Freq\RB3PW91\GenECP\H4O4Ti1\OHNISHI\26-Oct-2016\0\\#P
  B3PW91/GenECP SCFCon=7 SCFCyc=250 GFInput GFOldPrint Pseudo=Read Freq
  Integral=(Grid=UltraFine) Pop=Regular IOp(1/33=0,2/11=1,3/27=8,6/7=3)
 \\Frequency\\0,1\Ti,-0.178548,-0.085833,0.228763\O,-0.399288,1.511078,
 0.02677\O,1.563524,-0.637333,-0.046416\H,1.801686,-1.511318,-0.371971\
 O,-1.519992,-1.130752,-0.431768\H,-2.315433,-0.820005,-0.87434\O,-0.09
 6894,-0.050448,2.369008\H,0.777769,-0.324693,2.676574\H,-0.208479,0.87
 6966,2.621975\\Version=AM64L-G09RevC.01\State=1-A\HF=-361.7293661\RMSD
 =1.189e-08\RMSF=1.704e-06\ZeroPoint=0.055077\Thermal=0.0635236\Dipole=
 0.1217735,-0.7559124,1.5615437\DipoleDeriv=2.1651113,-0.141341,0.12538
 04,-0.0298802,2.2210581,0.2123728,0.1633802,0.1958611,1.7151361,-0.509
 0158,0.1505519,0.0147008,0.1958751,-1.5069024,-0.0274637,-0.0046744,0.
 0710478,-0.6565456,-1.4308277,0.475805,0.0711033,0.3549567,-0.6075926,
 0.0283217,0.1203262,-0.0299051,-0.7431923,0.3476581,-0.0303711,-0.0193
 08,-0.05592,0.2252468,-0.0401491,-0.0269775,-0.0314638,0.3228514,-1.12
 13137,-0.5164036,-0.1840168,-0.5030518,-0.8260905,-0.2190619,-0.210830
 2,-0.249682,-0.783104,0.3402007,0.0707934,0.00159,0.0478393,0.2528415,
 0.0303403,0.0048054,0.0349122,0.3242157,-0.3970065,0.0297564,0.0531828
 ,0.0327942,-0.3821584,0.0616371,-0.0231529,-0.001287,-0.9972459,0.2972
 887,-0.0099145,0.0063255,-0.0273005,0.3151369,-0.0755025,0.0132979,-0.
 0401325,0.4017872,0.307905,-0.0288766,-0.0689581,-0.0153128,0.3084608,
 0.0295052,-0.0361747,0.0506494,0.4160975\Polar=46.9681878,-2.3692465,4
 8.1522643,3.1659691,2.7130416,37.5730857\PG=C01 [X(H4O4Ti1)]\NImag=0\\
 0.44663261,-0.02979167,0.63589410,0.05342550,0.00015072,0.18389325,-0.
 05922198,0.05481114,-0.01368632,0.03443746,0.05117943,-0.47406227,0.07
 041472,-0.05968639,0.48466559,-0.01171154,0.06012683,-0.03405085,0.010
 18462,-0.06496796,0.02613362,-0.19439443,0.03283531,0.03751091,0.00521
 957,0.03135430,-0.00509620,0.23748248,0.05768325,-0.05004278,-0.013847
 15,0.00702488,-0.00107059,-0.00330369,-0.18686692,0.48163691,0.0365711
 7,-0.00861280,-0.02418035,-0.00153039,-0.00752632,0.00130306,-0.080814
 07,0.18004491,0.08508108,-0.01244323,0.01490261,0.00608864,0.00118484,
 -0.00124009,0.00090092,-0.03839519,0.11890855,0.04173382,0.04767504,-0
 .00194728,-0.00518751,-0.00177775,0.00165632,0.00204493,-0.00018988,0.
 13188030,-0.44382010,-0.16517136,-0.13003717,0.44850066,0.00032303,-0.
 00372280,0.00186926,-0.00116038,0.00241353,0.00065173,0.04700035,-0.16
 558836,-0.06836113,-0.04714557,0.16651734,0.06787008,-0.15553435,-0.07
 684663,-0.06670590,0.01593269,-0.02417801,0.00449813,-0.01027179,0.003
 80779,-0.00103778,0.00142344,-0.00151791,0.00025712,0.52315693,-0.0648
 8215,-0.08830972,-0.03837283,-0.00767494,-0.01094225,-0.00404686,-0.00
 966323,0.01193891,0.00334521,-0.00200309,-0.00165831,0.00055343,-0.052
 43866,0.14925283,-0.06551896,-0.04309345,-0.05923278,0.00563163,-0.011
 27427,0.00964383,-0.00543885,0.00628358,0.00572620,-0.00130272,-0.0002
 6104,-0.00159134,0.27105241,-0.03466007,0.16940146,-0.01208591,0.00146
 875,-0.01050598,0.00149994,0.00207048,0.00306249,0.00123541,-0.0010324
 3,-0.00009766,0.00012578,0.00014760,-0.00002545,-0.37609595,0.13596517
 ,-0.20280255,0.38526193,-0.01570095,0.00038089,-0.00813226,0.00372581,
 -0.00202174,0.00184855,0.00037136,0.00058463,-0.00002903,-0.00037277,0
 .00009471,0.00007767,0.15046104,-0.06164500,0.08393332,-0.13856331,0.0
 6252631,-0.00964513,0.00118173,0.00306860,0.00278417,0.00070232,-0.002
 54194,0.00140700,-0.00053375,-0.00019523,-0.00016994,0.00025083,0.0000
 5562,-0.20410334,0.07626036,-0.12395563,0.20975577,-0.07761965,0.12361
 409,-0.01905213,0.00502619,-0.00602020,0.00364796,-0.00041506,-0.00287
 564,0.00247347,-0.00002943,0.00570171,0.00031730,0.00005977,0.00061566
 ,0.00216584,0.00060383,-0.00184066,-0.00009207,0.00014585,0.00025245,0
 .48272440,0.00601428,-0.02421790,-0.00863931,0.00044034,0.00581733,0.0
 1024874,-0.00147267,0.00346042,-0.00373043,-0.00023757,-0.00027683,0.0
 0089892,0.00080212,0.00189751,-0.00060172,-0.00008620,0.00007188,-0.00
 026299,-0.18276619,0.56577410,0.00813209,0.00738609,-0.05582134,-0.003
 08240,0.00741292,-0.00606941,0.00605129,-0.00399907,-0.00312327,-0.000
 52932,0.00083944,-0.00063588,-0.00674075,-0.00519615,-0.00061881,0.001
 04961,-0.00005241,0.00013407,0.15852332,0.10329774,0.19820510,0.001465
 03,-0.00108097,-0.00321149,-0.00009825,-0.00046414,0.00097826,-0.00301
 206,0.00099452,-0.00064658,0.00021999,-0.00022855,0.00033892,0.0002956
 9,0.00016483,0.00020036,-0.00002627,0.00000259,-0.00008209,-0.42711683
 ,0.14851569,-0.14894671,0.43285730,-0.00134502,0.00392661,0.00484223,-
 0.00076376,-0.00049256,0.00005234,0.00176051,-0.00269212,0.00081940,-0
 .00000713,0.00028887,-0.00102975,-0.00032790,-0.00082105,-0.00058593,0
 .00012257,-0.00002259,0.00004742,0.10011022,-0.07844729,0.01438989,-0.
 14167398,0.08883069,-0.01370133,0.00443788,-0.00688127,0.00106569,-0.0
 0102735,-0.00082020,0.00097533,-0.00043672,0.00428796,0.00037097,-0.00
 007193,0.00002427,0.00129200,0.00075268,0.00014641,-0.00016310,0.00000
 231,-0.00002166,-0.15660569,0.03596127,-0.07370561,0.15457389,-0.03424
 264,0.07281340,0.00463439,-0.00132473,0.00310485,-0.00260223,0.0013794
 8,0.00005896,-0.00033747,-0.00049022,0.00011978,-0.00010798,-0.0000130
 9,-0.00020367,-0.00107251,-0.00007176,0.00001934,0.00017713,-0.0000696
 3,-0.00019890,-0.04506795,0.02879019,-0.01445712,-0.00458460,0.0421245
 0,0.01219223,0.04896122,-0.00120989,0.00161858,-0.00463839,0.00046660,
 -0.00393843,0.00023193,-0.00019895,0.00000472,0.00086041,0.00008666,0.
 00001358,-0.00011998,0.00023814,0.00028709,0.00025957,-0.00009263,0.00
 003092,-0.00002626,0.07726482,-0.47407922,-0.12407845,-0.00622999,-0.0
 1057057,-0.00537551,-0.07032475,0.48663334,0.00212517,-0.01785420,-0.0
 0866451,-0.00020661,0.00385241,0.00575015,-0.00159576,0.00138025,-0.00
 053832,0.00005319,-0.00013565,0.00011740,0.00148812,0.00136423,0.00048
 066,-0.00027313,-0.00002851,-0.00015792,0.00224905,-0.13717223,-0.0583
 6485,-0.00320455,0.01570703,0.00415668,-0.00063546,0.13288667,0.057220
 70\\-0.00000411,0.00000065,0.00000004,0.00000162,0.00000054,0.00000071
 ,0.00000238,-0.00000138,-0.00000061,-0.00000076,-0.00000041,-0.0000011
 4,0.00000533,-0.00000205,-0.00000022,-0.00000098,0.00000079,0.00000059
 ,0.00000055,0.00000153,-0.00000068,-0.00000198,-0.00000044,0.00000091,
 -0.00000205,0.00000077,0.00000040\\\@


 STEINBACH'S GUIDELINES FOR SYSTEMS PROGRAMMING:
 NEVER TEST FOR AN ERROR CONDITION YOU DON'T KNOW HOW
 TO HANDLE.
 Job cpu time:  0 days  0 hours  1 minutes 13.4 seconds.
 File lengths (MBytes):  RWF=     22 Int=      0 D2E=      0 Chk=      2 Scr=      1
 Normal termination of Gaussian 09 at Wed Oct 26 17:43:48 2016.
real 74.83
user 71.29
sys 2.22
