 Running on titan10
 Entering Gaussian System, Link 0=g09
 Initial command:
 /opt/qcapps/g09/l1.exe /work/ohnishi/1477468584/Gau-4946.inp -scrdir=/work/ohnishi/1477468584/
 Entering Link 1 = /opt/qcapps/g09/l1.exe PID=      4947.
  
 Copyright (c) 1988,1990,1992,1993,1995,1998,2003,2009,2011,
            Gaussian, Inc.  All Rights Reserved.
  
 This is part of the Gaussian(R) 09 program.  It is based on
 the Gaussian(R) 03 system (copyright 2003, Gaussian, Inc.),
 the Gaussian(R) 98 system (copyright 1998, Gaussian, Inc.),
 the Gaussian(R) 94 system (copyright 1995, Gaussian, Inc.),
 the Gaussian 92(TM) system (copyright 1992, Gaussian, Inc.),
 the Gaussian 90(TM) system (copyright 1990, Gaussian, Inc.),
 the Gaussian 88(TM) system (copyright 1988, Gaussian, Inc.),
 the Gaussian 86(TM) system (copyright 1986, Carnegie Mellon
 University), and the Gaussian 82(TM) system (copyright 1983,
 Carnegie Mellon University). Gaussian is a federally registered
 trademark of Gaussian, Inc.
  
 This software contains proprietary and confidential information,
 including trade secrets, belonging to Gaussian, Inc.
  
 This software is provided under written license and may be
 used, copied, transmitted, or stored only in accord with that
 written license.
  
 The following legend is applicable only to US Government
 contracts under FAR:
  
                    RESTRICTED RIGHTS LEGEND
  
 Use, reproduction and disclosure by the US Government is
 subject to restrictions as set forth in subparagraphs (a)
 and (c) of the Commercial Computer Software - Restricted
 Rights clause in FAR 52.227-19.
  
 Gaussian, Inc.
 340 Quinnipiac St., Bldg. 40, Wallingford CT 06492
  
  
 ---------------------------------------------------------------
 Warning -- This program may not be used in any manner that
 competes with the business of Gaussian, Inc. or will provide
 assistance to any competitor of Gaussian, Inc.  The licensee
 of this program is prohibited from giving any competitor of
 Gaussian, Inc. access to this program.  By using this program,
 the user acknowledges that Gaussian, Inc. is engaged in the
 business of creating and licensing software in the field of
 computational chemistry and represents and warrants to the
 licensee that it is not a competitor of Gaussian, Inc. and that
 it will not use this program in any manner prohibited above.
 ---------------------------------------------------------------
  

 Cite this work as:
 Gaussian 09, Revision C.01,
 M. J. Frisch, G. W. Trucks, H. B. Schlegel, G. E. Scuseria, 
 M. A. Robb, J. R. Cheeseman, G. Scalmani, V. Barone, B. Mennucci, 
 G. A. Petersson, H. Nakatsuji, M. Caricato, X. Li, H. P. Hratchian, 
 A. F. Izmaylov, J. Bloino, G. Zheng, J. L. Sonnenberg, M. Hada, 
 M. Ehara, K. Toyota, R. Fukuda, J. Hasegawa, M. Ishida, T. Nakajima, 
 Y. Honda, O. Kitao, H. Nakai, T. Vreven, J. A. Montgomery, Jr., 
 J. E. Peralta, F. Ogliaro, M. Bearpark, J. J. Heyd, E. Brothers, 
 K. N. Kudin, V. N. Staroverov, T. Keith, R. Kobayashi, J. Normand, 
 K. Raghavachari, A. Rendell, J. C. Burant, S. S. Iyengar, J. Tomasi, 
 M. Cossi, N. Rega, J. M. Millam, M. Klene, J. E. Knox, J. B. Cross, 
 V. Bakken, C. Adamo, J. Jaramillo, R. Gomperts, R. E. Stratmann, 
 O. Yazyev, A. J. Austin, R. Cammi, C. Pomelli, J. W. Ochterski, 
 R. L. Martin, K. Morokuma, V. G. Zakrzewski, G. A. Voth, 
 P. Salvador, J. J. Dannenberg, S. Dapprich, A. D. Daniels, 
 O. Farkas, J. B. Foresman, J. V. Ortiz, J. Cioslowski, 
 and D. J. Fox, Gaussian, Inc., Wallingford CT, 2010.
 
 ******************************************
 Gaussian 09:  AM64L-G09RevC.01 23-Sep-2011
                26-Oct-2016 
 ******************************************
 %NprocShared=8
 Will use up to    8 processors via shared memory.
 %Mem=25712MB
 ----------------------------------------------------------------------
 #P B3PW91/GenECP SCFCon=7 SCFCyc=250 GFInput GFOldPrint Pseudo=Read Fr
 eq Integral=(Grid=UltraFine) Pop=Regular IOp(1/33=0,2/11=1,3/27=8,6/7=
 3)
 ----------------------------------------------------------------------
 1/10=4,30=1,38=1/1,3;
 2/11=1,12=2,17=6,18=5,40=1/2;
 3/5=7,11=2,16=1,17=8,24=11,25=1,27=8,30=1,71=2,74=-6,75=-5/1,2,3;
 4//1;
 5/5=2,6=7,7=250,38=5,98=1/2;
 8/6=4,10=90,11=11/1;
 11/6=1,8=1,9=11,15=111,16=1/1,2,10;
 10/6=1/2;
 6/7=3,18=1,28=1/1;
 7/8=1,10=1,25=1/1,2,3,16;
 1/10=4,30=1/3;
 99//99;
 Leave Link    1 at Wed Oct 26 16:56:24 2016, MaxMem= 3370123264 cpu:       0.6
 (Enter /opt/qcapps/g09/l101.exe)
 ---------
 Frequency
 ---------
 Charge =  0 Multiplicity = 1
 Symbolic Z-Matrix:
 Ti                    0.00005   0.19921  -0.56415 
 O                     1.37255   0.62509   0.23823 
 O                    -1.37239   0.62529   0.23825 
 O                    -0.00018  -1.92422  -0.32341 
 H                    -0.77804  -2.15214   0.20553 
 H                     0.77763  -2.15233   0.20554 
 
 NAtoms=      6 NQM=        0 NQMF=       0 NMMI=      6 NMMIF=      0
                NMic=       0 NMicF=      0.
                    Isotopes and Nuclear Properties:
 (Nuclear quadrupole moments (NQMom) in fm**2, nuclear magnetic moments (NMagM)
  in nuclear magnetons)

  Atom         1           2           3           4           5           6
 IAtWgt=          48          16          16          16           1           1
 AtmWgt=  47.9479467  15.9949146  15.9949146  15.9949146   1.0078250   1.0078250
 NucSpn=           0           0           0           0           1           1
 AtZEff=   0.0000000   0.0000000   0.0000000   0.0000000   0.0000000   0.0000000
 NQMom=    0.0000000   0.0000000   0.0000000   0.0000000   0.0000000   0.0000000
 NMagM=    0.0000000   0.0000000   0.0000000   0.0000000   2.7928460   2.7928460
 Leave Link  101 at Wed Oct 26 16:56:24 2016, MaxMem= 3370123264 cpu:       0.8
 (Enter /opt/qcapps/g09/l103.exe)

 GradGradGradGradGradGradGradGradGradGradGradGradGradGradGradGradGradGrad
 Berny optimization.
 Initialization pass.
 Trust Radius=3.00D-01 FncErr=1.00D-07 GrdErr=1.00D-07
 Number of steps in this run=      2 maximum allowed number of steps=      2.
 GradGradGradGradGradGradGradGradGradGradGradGradGradGradGradGradGradGrad

 Leave Link  103 at Wed Oct 26 16:56:24 2016, MaxMem= 3370123264 cpu:       0.2
 (Enter /opt/qcapps/g09/l202.exe)
                          Input orientation:                          
 ---------------------------------------------------------------------
 Center     Atomic      Atomic             Coordinates (Angstroms)
 Number     Number       Type             X           Y           Z
 ---------------------------------------------------------------------
      1         22           0        0.000045    0.199214   -0.564146
      2          8           0        1.372552    0.625093    0.238233
      3          8           0       -1.372388    0.625291    0.238253
      4          8           0       -0.000179   -1.924223   -0.323407
      5          1           0       -0.778041   -2.152143    0.205532
      6          1           0        0.777627   -2.152328    0.205535
 ---------------------------------------------------------------------
                    Distance matrix (angstroms):
                    1          2          3          4          5
     1  Ti   0.000000
     2  O    1.645892   0.000000
     3  O    1.645891   2.744940   0.000000
     4  O    2.137040   2.949380   2.949312   0.000000
     5  H    2.593589   3.512714   2.840503   0.967881   0.000000
     6  H    2.593606   2.840611   3.512663   0.967881   1.555668
                    6
     6  H    0.000000
 Stoichiometry    H2O3Ti
 Framework group  C1[X(H2O3Ti)]
 Deg. of freedom    12
 Full point group                 C1      NOp   1
 Largest Abelian subgroup         C1      NOp   1
 Largest concise Abelian subgroup C1      NOp   1
                         Standard orientation:                         
 ---------------------------------------------------------------------
 Center     Atomic      Atomic             Coordinates (Angstroms)
 Number     Number       Type             X           Y           Z
 ---------------------------------------------------------------------
      1         22           0        0.284804    0.000010   -0.360950
      2          8           0        0.767210   -1.372411    0.408923
      3          8           0        0.766949    1.372529    0.408912
      4          8           0       -1.815977   -0.000116    0.031043
      5          1           0       -2.005613    0.777718    0.574924
      6          1           0       -2.005537   -0.777950    0.574950
 ---------------------------------------------------------------------
 Rotational constants (GHZ):      6.8636499      5.2912775      3.4893108
 Leave Link  202 at Wed Oct 26 16:56:24 2016, MaxMem= 3370123264 cpu:       0.0
 (Enter /opt/qcapps/g09/l301.exe)
 General basis read from cards:  (5D, 7F)
 Centers:   1
 SDDAll
 ****
 Centers:   2  3  4  5  6
 6-31G(d,p)
 ****
 ======================================================================================================
                                       Pseudopotential Parameters
 ======================================================================================================
  Center     Atomic      Valence      Angular      Power
  Number     Number     Electrons     Momentum     of R      Exponent        Coefficient   SO-Coeffient
 ======================================================================================================
    1         22           12
                                      F and up 
                                                     2        1.0000000        0.00000000    0.00000000
                                      S - F
                                                     2       13.0100000      158.24159300    0.00000000
                                                     2        5.8620000       17.51182400    0.00000000
                                      P - F
                                                     2       12.4600000       95.23512700    0.00000000
                                                     2        5.2170000       10.04785600    0.00000000
                                      D - F
                                                     2       15.3500000      -17.56886100    0.00000000
                                                     2        4.9800000       -0.58725600    0.00000000
    2          8
                                   No pseudopotential on this center.
    3          8
                                   No pseudopotential on this center.
    4          8
                                   No pseudopotential on this center.
    5          1
                                   No pseudopotential on this center.
    6          1
                                   No pseudopotential on this center.
 ======================================================================================================
 Ernie: Thresh=  0.10000D-02 Tol=  0.10000D-05 Strict=F.
 AO basis set in the form of general basis input (Overlap normalization):
      1 0
 S   3 1.00       0.000000000000
      0.1078036500D+02  0.1783892477D+01
      0.9717013000D+01 -0.2000689535D+01
      0.4507755000D+01 -0.7563332022D+00
 S   1 1.00       0.000000000000
      0.1246708000D+01  0.1000000000D+01
 S   1 1.00       0.000000000000
      0.5087070000D+00  0.1000000000D+01
 S   1 1.00       0.000000000000
      0.7343800000D-01  0.1000000000D+01
 S   1 1.00       0.000000000000
      0.3004800000D-01  0.1000000000D+01
 S   1 1.00       0.000000000000
      0.1000000000D-01  0.1000000000D+01
 P   2 1.00       0.000000000000
      0.1756638100D+02  0.8860101480D-01
      0.7705844000D+01 -0.1070746179D+01
 P   2 1.00       0.000000000000
      0.3329138000D+01  0.2001088977D+00
      0.1308104000D+01  0.8379855716D+00
 P   1 1.00       0.000000000000
      0.4544820000D+00  0.1000000000D+01
 P   1 1.00       0.000000000000
      0.7177200000D-01  0.1000000000D+01
 P   1 1.00       0.000000000000
      0.2378400000D-01  0.1000000000D+01
 D   4 1.00       0.000000000000
      0.1951919400D+02  0.3581400317D-01
      0.5864613000D+01  0.1723730152D+00
      0.1928038000D+01  0.4251360376D+00
      0.6065630000D+00  0.6025950533D+00
 D   1 1.00       0.000000000000
      0.1639610000D+00  0.1000000000D+01
 D   1 1.00       0.000000000000
      0.5000000000D-01  0.1000000000D+01
 F   1 1.00       0.000000000000
      0.5000000000D+00  0.1000000000D+01
 ****
      2 0
 S   6 1.00       0.000000000000
      0.5484671660D+04  0.1831074430D-02
      0.8252349460D+03  0.1395017220D-01
      0.1880469580D+03  0.6844507810D-01
      0.5296450000D+02  0.2327143360D+00
      0.1689757040D+02  0.4701928980D+00
      0.5799635340D+01  0.3585208530D+00
 SP   3 1.00       0.000000000000
      0.1553961625D+02 -0.1107775495D+00  0.7087426823D-01
      0.3599933586D+01 -0.1480262627D+00  0.3397528391D+00
      0.1013761750D+01  0.1130767015D+01  0.7271585773D+00
 SP   1 1.00       0.000000000000
      0.2700058226D+00  0.1000000000D+01  0.1000000000D+01
 D   1 1.00       0.000000000000
      0.8000000000D+00  0.1000000000D+01
 ****
      3 0
 S   6 1.00       0.000000000000
      0.5484671660D+04  0.1831074430D-02
      0.8252349460D+03  0.1395017220D-01
      0.1880469580D+03  0.6844507810D-01
      0.5296450000D+02  0.2327143360D+00
      0.1689757040D+02  0.4701928980D+00
      0.5799635340D+01  0.3585208530D+00
 SP   3 1.00       0.000000000000
      0.1553961625D+02 -0.1107775495D+00  0.7087426823D-01
      0.3599933586D+01 -0.1480262627D+00  0.3397528391D+00
      0.1013761750D+01  0.1130767015D+01  0.7271585773D+00
 SP   1 1.00       0.000000000000
      0.2700058226D+00  0.1000000000D+01  0.1000000000D+01
 D   1 1.00       0.000000000000
      0.8000000000D+00  0.1000000000D+01
 ****
      4 0
 S   6 1.00       0.000000000000
      0.5484671660D+04  0.1831074430D-02
      0.8252349460D+03  0.1395017220D-01
      0.1880469580D+03  0.6844507810D-01
      0.5296450000D+02  0.2327143360D+00
      0.1689757040D+02  0.4701928980D+00
      0.5799635340D+01  0.3585208530D+00
 SP   3 1.00       0.000000000000
      0.1553961625D+02 -0.1107775495D+00  0.7087426823D-01
      0.3599933586D+01 -0.1480262627D+00  0.3397528391D+00
      0.1013761750D+01  0.1130767015D+01  0.7271585773D+00
 SP   1 1.00       0.000000000000
      0.2700058226D+00  0.1000000000D+01  0.1000000000D+01
 D   1 1.00       0.000000000000
      0.8000000000D+00  0.1000000000D+01
 ****
      5 0
 S   3 1.00       0.000000000000
      0.1873113696D+02  0.3349460434D-01
      0.2825394365D+01  0.2347269535D+00
      0.6401216923D+00  0.8137573261D+00
 S   1 1.00       0.000000000000
      0.1612777588D+00  0.1000000000D+01
 P   1 1.00       0.000000000000
      0.1100000000D+01  0.1000000000D+01
 ****
      6 0
 S   3 1.00       0.000000000000
      0.1873113696D+02  0.3349460434D-01
      0.2825394365D+01  0.2347269535D+00
      0.6401216923D+00  0.8137573261D+00
 S   1 1.00       0.000000000000
      0.1612777588D+00  0.1000000000D+01
 P   1 1.00       0.000000000000
      0.1100000000D+01  0.1000000000D+01
 ****

 ***********************************************************************************************************************************
 *             ATOMIC CENTER             *        ATOMIC ORBITAL       *                     GAUSSIAN FUNCTIONS                    *
 ***********************************************************************************************************************************
 *                                       * FUNCTION    SHELL    SCALE  *                                                           *
 *    ATOM   X-COORD  Y-COORD  Z-COORD   *  NUMBER     TYPE     FACTOR *  EXPONENT    S-COEF      P-COEF      D-COEF      F-COEF   *
 ***********************************************************************************************************************************
 *     Ti     0.53820  0.00002 -0.68210                                                                                            *
+                                                1   S           1.00                                                               
+                                                                      0.107804D+020.756404D+010.000000D+000.000000D+000.000000D+00 
 *                                                                     0.971701D+01-.784765D+010.000000D+000.000000D+000.000000D+00*
 *                                                                     0.450776D+01-.166761D+010.000000D+000.000000D+000.000000D+00*
 *                                               2   S           1.00                                                              *
+                                                                      0.124671D+010.840879D+000.000000D+000.000000D+000.000000D+00 
 *                                               3   S           1.00                                                              *
+                                                                      0.508707D+000.429300D+000.000000D+000.000000D+000.000000D+00 
 *                                               4   S           1.00                                                              *
+                                                                      0.734380D-010.100543D+000.000000D+000.000000D+000.000000D+00 
 *                                               5   S           1.00                                                              *
+                                                                      0.300480D-010.514365D-010.000000D+000.000000D+000.000000D+00 
 *                                               6   S           1.00                                                              *
+                                                                      0.100000D-010.225377D-010.000000D+000.000000D+000.000000D+00 
 *                                           7-  9   P           1.00                                                              *
+                                                                      0.175664D+020.000000D+000.454184D+010.000000D+000.000000D+00 
 *                                                                     0.770584D+010.000000D+00-.195953D+020.000000D+000.000000D+00*
 *                                          10- 12   P           1.00                                                              *
+                                                                      0.332914D+010.000000D+000.128269D+010.000000D+000.000000D+00 
 *                                                                     0.130810D+010.000000D+000.167101D+010.000000D+000.000000D+00*
 *                                          13- 15   P           1.00                                                              *
+                                                                      0.454482D+000.000000D+000.531907D+000.000000D+000.000000D+00 
 *                                          16- 18   P           1.00                                                              *
+                                                                      0.717720D-010.000000D+000.529522D-010.000000D+000.000000D+00 
 *                                          19- 21   P           1.00                                                              *
+                                                                      0.237840D-010.000000D+000.133136D-010.000000D+000.000000D+00 
 *                                          22- 26   D           1.00                                                              *
+                                                                      0.195192D+020.000000D+000.000000D+000.106849D+020.000000D+00 
 *                                                                     0.586461D+010.000000D+000.000000D+000.627043D+010.000000D+00*
 *                                                                     0.192804D+010.000000D+000.000000D+000.220744D+010.000000D+00*
 *                                                                     0.606563D+000.000000D+000.000000D+000.413493D+000.000000D+00*
 *                                          27- 31   D           1.00                                                              *
+                                                                      0.163961D+000.000000D+000.000000D+000.695353D-010.000000D+00 
 *                                          32- 36   D           1.00                                                              *
+                                                                      0.500000D-010.000000D+000.000000D+000.870176D-020.000000D+00 
 *                                          31- 43   F           1.00                                                              *
+                                                                      0.500000D+000.000000D+000.000000D+000.000000D+000.309483D+00 
 *---------------------------------------------------------------------------------------------------------------------------------*
 *     O      1.44982 -2.59348  0.77275                                                                                            *
+                                               44   S           1.00                                                               
+                                                                      0.548467D+040.831724D+000.000000D+000.000000D+000.000000D+00 
 *                                                                     0.825235D+030.153082D+010.000000D+000.000000D+000.000000D+00*
 *                                                                     0.188047D+030.247715D+010.000000D+000.000000D+000.000000D+00*
 *                                                                     0.529645D+020.325628D+010.000000D+000.000000D+000.000000D+00*
 *                                                                     0.168976D+020.279289D+010.000000D+000.000000D+000.000000D+00*
 *                                                                     0.579964D+010.954938D+000.000000D+000.000000D+000.000000D+00*
 *                                          45- 48   SP          1.00                                                              *
+                                                                      0.155396D+02-.617934D+000.311694D+010.000000D+000.000000D+00 
 *                                                                     0.359993D+01-.275721D+000.240144D+010.000000D+000.000000D+00*
 *                                                                     0.101376D+010.814208D+000.105436D+010.000000D+000.000000D+00*
 *                                          49- 52   SP          1.00                                                              *
+                                                                      0.270006D+000.266956D+000.277432D+000.000000D+000.000000D+00 
 *                                          53- 57   D           1.00                                                              *
+                                                                      0.800000D+000.000000D+000.000000D+000.111382D+010.000000D+00 
 *---------------------------------------------------------------------------------------------------------------------------------*
 *     O      1.44932  2.59370  0.77273                                                                                            *
+                                               58   S           1.00                                                               
+                                                                      0.548467D+040.831724D+000.000000D+000.000000D+000.000000D+00 
 *                                                                     0.825235D+030.153082D+010.000000D+000.000000D+000.000000D+00*
 *                                                                     0.188047D+030.247715D+010.000000D+000.000000D+000.000000D+00*
 *                                                                     0.529645D+020.325628D+010.000000D+000.000000D+000.000000D+00*
 *                                                                     0.168976D+020.279289D+010.000000D+000.000000D+000.000000D+00*
 *                                                                     0.579964D+010.954938D+000.000000D+000.000000D+000.000000D+00*
 *                                          59- 62   SP          1.00                                                              *
+                                                                      0.155396D+02-.617934D+000.311694D+010.000000D+000.000000D+00 
 *                                                                     0.359993D+01-.275721D+000.240144D+010.000000D+000.000000D+00*
 *                                                                     0.101376D+010.814208D+000.105436D+010.000000D+000.000000D+00*
 *                                          63- 66   SP          1.00                                                              *
+                                                                      0.270006D+000.266956D+000.277432D+000.000000D+000.000000D+00 
 *                                          67- 71   D           1.00                                                              *
+                                                                      0.800000D+000.000000D+000.000000D+000.111382D+010.000000D+00 
 *---------------------------------------------------------------------------------------------------------------------------------*
 *     O     -3.43170 -0.00022  0.05866                                                                                            *
+                                               72   S           1.00                                                               
+                                                                      0.548467D+040.831724D+000.000000D+000.000000D+000.000000D+00 
 *                                                                     0.825235D+030.153082D+010.000000D+000.000000D+000.000000D+00*
 *                                                                     0.188047D+030.247715D+010.000000D+000.000000D+000.000000D+00*
 *                                                                     0.529645D+020.325628D+010.000000D+000.000000D+000.000000D+00*
 *                                                                     0.168976D+020.279289D+010.000000D+000.000000D+000.000000D+00*
 *                                                                     0.579964D+010.954938D+000.000000D+000.000000D+000.000000D+00*
 *                                          73- 76   SP          1.00                                                              *
+                                                                      0.155396D+02-.617934D+000.311694D+010.000000D+000.000000D+00 
 *                                                                     0.359993D+01-.275721D+000.240144D+010.000000D+000.000000D+00*
 *                                                                     0.101376D+010.814208D+000.105436D+010.000000D+000.000000D+00*
 *                                          77- 80   SP          1.00                                                              *
+                                                                      0.270006D+000.266956D+000.277432D+000.000000D+000.000000D+00 
 *                                          81- 85   D           1.00                                                              *
+                                                                      0.800000D+000.000000D+000.000000D+000.111382D+010.000000D+00 
 *---------------------------------------------------------------------------------------------------------------------------------*
 *     H     -3.79006  1.46967  1.08645                                                                                            *
+                                               86   S           1.00                                                               
+                                                                      0.187311D+020.214935D+000.000000D+000.000000D+000.000000D+00 
 *                                                                     0.282539D+010.364571D+000.000000D+000.000000D+000.000000D+00*
 *                                                                     0.640122D+000.415051D+000.000000D+000.000000D+000.000000D+00*
 *                                              87   S           1.00                                                              *
+                                                                      0.161278D+000.181381D+000.000000D+000.000000D+000.000000D+00 
 *                                          88- 90   P           1.00                                                              *
+                                                                      0.110000D+010.000000D+000.160576D+010.000000D+000.000000D+00 
 *---------------------------------------------------------------------------------------------------------------------------------*
 *     H     -3.78992 -1.47011  1.08650                                                                                            *
+                                               91   S           1.00                                                               
+                                                                      0.187311D+020.214935D+000.000000D+000.000000D+000.000000D+00 
 *                                                                     0.282539D+010.364571D+000.000000D+000.000000D+000.000000D+00*
 *                                                                     0.640122D+000.415051D+000.000000D+000.000000D+000.000000D+00*
 *                                              92   S           1.00                                                              *
+                                                                      0.161278D+000.181381D+000.000000D+000.000000D+000.000000D+00 
 *                                          93- 95   P           1.00                                                              *
+                                                                      0.110000D+010.000000D+000.160576D+010.000000D+000.000000D+00 
 ***********************************************************************************************************************************
 There are    95 symmetry adapted basis functions of A   symmetry.
 Integral buffers will be    131072 words long.
 Raffenetti 2 integral format.
 Two-electron integral symmetry is turned on.
    95 basis functions,   173 primitive gaussians,   104 cartesian basis functions
    19 alpha electrons       19 beta electrons
       nuclear repulsion energy       140.1822513152 Hartrees.
 IExCor=  408 DFT=T Ex+Corr=B3PW91 ExCW=0 ScaHFX=  0.200000
 ScaDFX=  0.800000  0.720000  1.000000  0.810000 ScalE2=  1.000000  1.000000
 IRadAn=      5 IRanWt=     -1 IRanGd=            0 ICorTp=0
 NAtoms=    6 NActive=    6 NUniq=    6 SFac= 1.00D+00 NAtFMM=   60 NAOKFM=F Big=F
 Leave Link  301 at Wed Oct 26 16:56:25 2016, MaxMem= 3370123264 cpu:       0.6
 (Enter /opt/qcapps/g09/l302.exe)
 NPDir=0 NMtPBC=     1 NCelOv=     1 NCel=       1 NClECP=     1 NCelD=      1
         NCelK=      1 NCelE2=     1 NClLst=     1 CellRange=     0.0.
 One-electron integrals computed using PRISM.
   1 Symmetry operations used in ECPInt.
 ECPInt:  NShTT=     561 NPrTT=    2216 LenC2=     559 LenP2D=    1842.
 LDataN:  DoStor=T MaxTD1= 6 Len=  172
 NBasis=    95 RedAO= T  NBF=    95
 NBsUse=    95 1.00D-06 NBFU=    95
 Precomputing XC quadrature grid using
 IXCGrd= 2 IRadAn=           5 IRanWt=          -1 IRanGd=           0 AccXCQ= 0.00D+00.
 NRdTot=     520 NPtTot=      149042 NUsed=      152773 NTot=      152805
 NSgBfM=   104   104   104   104   104 NAtAll=     6     6.
 Leave Link  302 at Wed Oct 26 16:56:25 2016, MaxMem= 3370123264 cpu:       1.9
 (Enter /opt/qcapps/g09/l303.exe)
 DipDrv:  MaxL=1.
 Leave Link  303 at Wed Oct 26 16:56:25 2016, MaxMem= 3370123264 cpu:       0.3
 (Enter /opt/qcapps/g09/l401.exe)
 Harris functional with IExCor=  408 diagonalized for initial guess.
 ExpMin= 1.00D-02 ExpMax= 5.48D+03 ExpMxC= 8.25D+02 IAcc=3 IRadAn=         5 AccDes= 0.00D+00
 HarFok:  IExCor=  408 AccDes= 0.00D+00 IRadAn=         5 IDoV= 1
 ScaDFX=  1.000000  1.000000  1.000000  1.000000
 FoFCou: FMM=F IPFlag=           0 FMFlag=      100000 FMFlg1=           0
         NFxFlg=           0 DoJE=T BraDBF=F KetDBF=T FulRan=T
         Omega=  0.000000  0.000000  1.000000  0.000000  0.000000 ICntrl=     500 IOpCl=  0
         NMat0=    1 NMatS0=    1 NMatT0=    0 NMatD0=    1 NMtDS0=    0 NMtDT0=    0
         I1Cent=           4 NGrid=           0.
 Petite list used in FoFCou.
 Harris En= -285.527715694413    
 Initial guess orbital symmetries:
       Occupied  (A) (A) (A) (A) (A) (A) (A) (A) (A) (A) (A) (A)
                 (A) (A) (A) (A) (A) (A) (A)
       Virtual   (A) (A) (A) (A) (A) (A) (A) (A) (A) (A) (A) (A)
                 (A) (A) (A) (A) (A) (A) (A) (A) (A) (A) (A) (A)
                 (A) (A) (A) (A) (A) (A) (A) (A) (A) (A) (A) (A)
                 (A) (A) (A) (A) (A) (A) (A) (A) (A) (A) (A) (A)
                 (A) (A) (A) (A) (A) (A) (A) (A) (A) (A) (A) (A)
                 (A) (A) (A) (A) (A) (A) (A) (A) (A) (A) (A) (A)
                 (A) (A) (A) (A)
 The electronic state of the initial guess is 1-A.
 Leave Link  401 at Wed Oct 26 16:56:26 2016, MaxMem= 3370123264 cpu:       4.4
 (Enter /opt/qcapps/g09/l502.exe)
 Closed shell SCF:
 Requested convergence on RMS density matrix=1.00D-07 within 250 cycles.
 Requested convergence on MAX density matrix=1.00D-05.
 Requested convergence on             energy=1.00D-05.
 No special actions if energy rises.
 Using DIIS extrapolation, IDIIS=  1040.
 Integral symmetry usage will be decided dynamically.
       152706 words used for storage of precomputed grid.
 Keep R1 ints in memory in canonical form, NReq=17100166.
 IEnd=      251622 IEndB=      251622 NGot=  3370123264 MDV=  3355037005
 LenX=  3355037005 LenY=  3355025748
 Symmetry not used in FoFDir.
 MinBra= 0 MaxBra= 3 Meth= 1.
 IRaf=       0 NMat=   1 IRICut=       1 DoRegI=T DoRafI=F ISym2E= 0 JSym2E=0.

 Cycle   1  Pass 1  IDiag  1:
 E= -284.567689773996    
 DIIS: error= 5.88D-02 at cycle   1 NSaved=   1.
 NSaved= 1 IEnMin= 1 EnMin= -284.567689773996     IErMin= 1 ErrMin= 5.88D-02
 ErrMax= 5.88D-02 EMaxC= 1.00D-01 BMatC= 8.33D-01 BMatP= 8.33D-01
 IDIUse=3 WtCom= 4.12D-01 WtEn= 5.88D-01
 Coeff-Com:  0.100D+01
 Coeff-En:   0.100D+01
 Coeff:      0.100D+01
 Gap=    -0.351 Goal=   None    Shift=    0.000
 GapD=   -0.351 DampG=0.250 DampE=0.250 DampFc=0.1250 IDamp=-1.
 Damping current iteration by 1.25D-01
 RMSDP=2.87D-02 MaxDP=8.01D-01              OVMax= 9.24D-01

 Cycle   2  Pass 1  IDiag  1:
 E= -284.738671370253     Delta-E=       -0.170981596256 Rises=F Damp=T
 DIIS: error= 2.50D-02 at cycle   2 NSaved=   2.
 NSaved= 2 IEnMin= 2 EnMin= -284.738671370253     IErMin= 2 ErrMin= 2.50D-02
 ErrMax= 2.50D-02 EMaxC= 1.00D-01 BMatC= 1.24D-01 BMatP= 8.33D-01
 IDIUse=3 WtCom= 7.50D-01 WtEn= 2.50D-01
 Coeff-Com: -0.317D+00 0.132D+01
 Coeff-En:   0.267D+00 0.733D+00
 Coeff:     -0.171D+00 0.117D+01
 Gap=    -0.007 Goal=   None    Shift=    0.000
 RMSDP=6.21D-03 MaxDP=9.22D-02 DE=-1.71D-01 OVMax= 9.89D-01

 Cycle   3  Pass 1  IDiag  1:
 E= -285.053678754684     Delta-E=       -0.315007384432 Rises=F Damp=F
 DIIS: error= 3.58D-02 at cycle   3 NSaved=   3.
 NSaved= 3 IEnMin= 3 EnMin= -285.053678754684     IErMin= 2 ErrMin= 2.50D-02
 ErrMax= 3.58D-02 EMaxC= 1.00D-01 BMatC= 2.02D-01 BMatP= 1.24D-01
 IDIUse=2 WtCom= 0.00D+00 WtEn= 1.00D+00
 Coeff-En:   0.000D+00 0.000D+00 0.100D+01
 Coeff:      0.000D+00 0.000D+00 0.100D+01
 Gap=     0.161 Goal=   None    Shift=    0.000
 RMSDP=1.34D-02 MaxDP=4.03D-01 DE=-3.15D-01 OVMax= 5.43D-01

 Cycle   4  Pass 1  IDiag  1:
 E= -281.666882578592     Delta-E=        3.386796176092 Rises=F Damp=F
 DIIS: error= 1.71D-01 at cycle   4 NSaved=   4.
 NSaved= 4 IEnMin= 3 EnMin= -285.053678754684     IErMin= 2 ErrMin= 2.50D-02
 ErrMax= 1.71D-01 EMaxC= 1.00D-01 BMatC= 6.42D+00 BMatP= 1.24D-01
 IDIUse=2 WtCom= 0.00D+00 WtEn= 1.00D+00
 EnCoef did     5 forward-backward iterations
 Coeff-En:   0.551D-01 0.000D+00 0.858D+00 0.874D-01
 Coeff:      0.551D-01 0.000D+00 0.858D+00 0.874D-01
 Gap=     0.108 Goal=   None    Shift=    0.000
 RMSDP=8.10D-03 MaxDP=3.08D-01 DE= 3.39D+00 OVMax= 3.74D-01

 Cycle   5  Pass 1  IDiag  1:
 E= -285.011454955373     Delta-E=       -3.344572376781 Rises=F Damp=F
 DIIS: error= 4.15D-02 at cycle   5 NSaved=   5.
 NSaved= 5 IEnMin= 3 EnMin= -285.053678754684     IErMin= 2 ErrMin= 2.50D-02
 ErrMax= 4.15D-02 EMaxC= 1.00D-01 BMatC= 3.11D-01 BMatP= 1.24D-01
 IDIUse=2 WtCom= 0.00D+00 WtEn= 1.00D+00
 Coeff-En:   0.000D+00 0.000D+00 0.543D+00 0.000D+00 0.457D+00
 Coeff:      0.000D+00 0.000D+00 0.543D+00 0.000D+00 0.457D+00
 Gap=     0.215 Goal=   None    Shift=    0.000
 RMSDP=3.97D-03 MaxDP=9.55D-02 DE=-3.34D+00 OVMax= 1.50D-01

 Cycle   6  Pass 1  IDiag  1:
 E= -285.172251714069     Delta-E=       -0.160796758696 Rises=F Damp=F
 DIIS: error= 1.87D-02 at cycle   6 NSaved=   6.
 NSaved= 6 IEnMin= 6 EnMin= -285.172251714069     IErMin= 6 ErrMin= 1.87D-02
 ErrMax= 1.87D-02 EMaxC= 1.00D-01 BMatC= 7.16D-02 BMatP= 1.24D-01
 IDIUse=3 WtCom= 8.13D-01 WtEn= 1.87D-01
 Coeff-Com: -0.155D+00 0.157D+00 0.262D+00-0.194D-01 0.275D+00 0.480D+00
 Coeff-En:   0.000D+00 0.000D+00 0.000D+00 0.000D+00 0.240D+00 0.760D+00
 Coeff:     -0.126D+00 0.128D+00 0.213D+00-0.158D-01 0.269D+00 0.532D+00
 Gap=     0.150 Goal=   None    Shift=    0.000
 RMSDP=1.67D-03 MaxDP=3.70D-02 DE=-1.61D-01 OVMax= 5.78D-02

 Cycle   7  Pass 1  IDiag  1:
 E= -285.222613859583     Delta-E=       -0.050362145514 Rises=F Damp=F
 DIIS: error= 2.78D-03 at cycle   7 NSaved=   7.
 NSaved= 7 IEnMin= 7 EnMin= -285.222613859583     IErMin= 7 ErrMin= 2.78D-03
 ErrMax= 2.78D-03 EMaxC= 1.00D-01 BMatC= 1.92D-03 BMatP= 7.16D-02
 IDIUse=3 WtCom= 9.72D-01 WtEn= 2.78D-02
 Coeff-Com: -0.149D-01-0.249D-02 0.749D-02-0.568D-02 0.742D-01 0.198D+00
 Coeff-Com:  0.744D+00
 Coeff-En:   0.000D+00 0.000D+00 0.000D+00 0.000D+00 0.000D+00 0.000D+00
 Coeff-En:   0.100D+01
 Coeff:     -0.145D-01-0.242D-02 0.728D-02-0.553D-02 0.722D-01 0.192D+00
 Coeff:      0.751D+00
 Gap=     0.160 Goal=   None    Shift=    0.000
 RMSDP=2.87D-04 MaxDP=5.73D-03 DE=-5.04D-02 OVMax= 6.57D-03

 Cycle   8  Pass 1  IDiag  1:
 E= -285.223976355658     Delta-E=       -0.001362496075 Rises=F Damp=F
 DIIS: error= 2.56D-04 at cycle   8 NSaved=   8.
 NSaved= 8 IEnMin= 8 EnMin= -285.223976355658     IErMin= 8 ErrMin= 2.56D-04
 ErrMax= 2.56D-04 EMaxC= 1.00D-01 BMatC= 9.95D-06 BMatP= 1.92D-03
 IDIUse=3 WtCom= 9.97D-01 WtEn= 2.56D-03
 Coeff-Com: -0.586D-02 0.333D-02-0.719D-02-0.863D-04 0.442D-02 0.570D-01
 Coeff-Com:  0.242D+00 0.707D+00
 Coeff-En:   0.000D+00 0.000D+00 0.000D+00 0.000D+00 0.000D+00 0.000D+00
 Coeff-En:   0.000D+00 0.100D+01
 Coeff:     -0.585D-02 0.332D-02-0.717D-02-0.860D-04 0.441D-02 0.569D-01
 Coeff:      0.241D+00 0.707D+00
 Gap=     0.160 Goal=   None    Shift=    0.000
 RMSDP=3.01D-05 MaxDP=6.78D-04 DE=-1.36D-03 OVMax= 8.96D-04

 Cycle   9  Pass 1  IDiag  1:
 E= -285.223979201747     Delta-E=       -0.000002846089 Rises=F Damp=F
 DIIS: error= 1.98D-04 at cycle   9 NSaved=   9.
 NSaved= 9 IEnMin= 9 EnMin= -285.223979201747     IErMin= 9 ErrMin= 1.98D-04
 ErrMax= 1.98D-04 EMaxC= 1.00D-01 BMatC= 6.12D-06 BMatP= 9.95D-06
 IDIUse=3 WtCom= 9.98D-01 WtEn= 1.98D-03
 Coeff-Com: -0.874D-03 0.705D-03-0.372D-02 0.147D-03-0.187D-03 0.614D-02
 Coeff-Com:  0.558D-01 0.214D+00 0.728D+00
 Coeff-En:   0.000D+00 0.000D+00 0.000D+00 0.000D+00 0.000D+00 0.000D+00
 Coeff-En:   0.000D+00 0.383D+00 0.617D+00
 Coeff:     -0.872D-03 0.703D-03-0.371D-02 0.146D-03-0.187D-03 0.613D-02
 Coeff:      0.557D-01 0.215D+00 0.728D+00
 Gap=     0.160 Goal=   None    Shift=    0.000
 RMSDP=1.18D-05 MaxDP=3.15D-04 DE=-2.85D-06 OVMax= 4.65D-04

 Cycle  10  Pass 1  IDiag  1:
 E= -285.223983643521     Delta-E=       -0.000004441774 Rises=F Damp=F
 DIIS: error= 4.74D-05 at cycle  10 NSaved=  10.
 NSaved=10 IEnMin=10 EnMin= -285.223983643521     IErMin=10 ErrMin= 4.74D-05
 ErrMax= 4.74D-05 EMaxC= 1.00D-01 BMatC= 3.04D-07 BMatP= 6.12D-06
 IDIUse=1 WtCom= 1.00D+00 WtEn= 0.00D+00
 Coeff-Com:  0.504D-03-0.382D-03-0.741D-03 0.368D-04-0.584D-04-0.432D-02
 Coeff-Com: -0.304D-02-0.233D-02 0.192D+00 0.818D+00
 Coeff:      0.504D-03-0.382D-03-0.741D-03 0.368D-04-0.584D-04-0.432D-02
 Coeff:     -0.304D-02-0.233D-02 0.192D+00 0.818D+00
 Gap=     0.160 Goal=   None    Shift=    0.000
 RMSDP=4.48D-06 MaxDP=1.25D-04 DE=-4.44D-06 OVMax= 1.85D-04

 Cycle  11  Pass 1  IDiag  1:
 E= -285.223983830693     Delta-E=       -0.000000187172 Rises=F Damp=F
 DIIS: error= 1.83D-05 at cycle  11 NSaved=  11.
 NSaved=11 IEnMin=11 EnMin= -285.223983830693     IErMin=11 ErrMin= 1.83D-05
 ErrMax= 1.83D-05 EMaxC= 1.00D-01 BMatC= 5.48D-08 BMatP= 3.04D-07
 IDIUse=1 WtCom= 1.00D+00 WtEn= 0.00D+00
 Coeff-Com:  0.691D-04-0.136D-04 0.896D-04-0.164D-04 0.391D-04-0.327D-03
 Coeff-Com: -0.136D-02-0.858D-03 0.356D-01 0.121D+00 0.846D+00
 Coeff:      0.691D-04-0.136D-04 0.896D-04-0.164D-04 0.391D-04-0.327D-03
 Coeff:     -0.136D-02-0.858D-03 0.356D-01 0.121D+00 0.846D+00
 Gap=     0.160 Goal=   None    Shift=    0.000
 RMSDP=1.28D-06 MaxDP=2.54D-05 DE=-1.87D-07 OVMax= 5.26D-05

 Cycle  12  Pass 1  IDiag  1:
 E= -285.223983870101     Delta-E=       -0.000000039408 Rises=F Damp=F
 DIIS: error= 2.86D-06 at cycle  12 NSaved=  12.
 NSaved=12 IEnMin=12 EnMin= -285.223983870101     IErMin=12 ErrMin= 2.86D-06
 ErrMax= 2.86D-06 EMaxC= 1.00D-01 BMatC= 1.99D-09 BMatP= 5.48D-08
 IDIUse=1 WtCom= 1.00D+00 WtEn= 0.00D+00
 Coeff-Com:  0.720D-05 0.257D-04 0.143D-03-0.155D-04 0.255D-04 0.131D-03
 Coeff-Com: -0.941D-03-0.888D-03 0.102D-01 0.195D-01 0.661D+00 0.311D+00
 Coeff:      0.720D-05 0.257D-04 0.143D-03-0.155D-04 0.255D-04 0.131D-03
 Coeff:     -0.941D-03-0.888D-03 0.102D-01 0.195D-01 0.661D+00 0.311D+00
 Gap=     0.160 Goal=   None    Shift=    0.000
 RMSDP=3.54D-07 MaxDP=8.64D-06 DE=-3.94D-08 OVMax= 1.39D-05

 Cycle  13  Pass 1  IDiag  1:
 E= -285.223983871626     Delta-E=       -0.000000001525 Rises=F Damp=F
 DIIS: error= 8.16D-07 at cycle  13 NSaved=  13.
 NSaved=13 IEnMin=13 EnMin= -285.223983871626     IErMin=13 ErrMin= 8.16D-07
 ErrMax= 8.16D-07 EMaxC= 1.00D-01 BMatC= 1.65D-10 BMatP= 1.99D-09
 IDIUse=1 WtCom= 1.00D+00 WtEn= 0.00D+00
 Coeff-Com: -0.117D-04 0.960D-05 0.367D-04 0.951D-06-0.259D-04 0.628D-04
 Coeff-Com: -0.444D-03-0.165D-02-0.745D-02-0.233D-01 0.453D-01 0.204D+00
 Coeff-Com:  0.783D+00
 Coeff:     -0.117D-04 0.960D-05 0.367D-04 0.951D-06-0.259D-04 0.628D-04
 Coeff:     -0.444D-03-0.165D-02-0.745D-02-0.233D-01 0.453D-01 0.204D+00
 Coeff:      0.783D+00
 Gap=     0.160 Goal=   None    Shift=    0.000
 RMSDP=1.06D-07 MaxDP=2.15D-06 DE=-1.52D-09 OVMax= 4.09D-06

 Cycle  14  Pass 1  IDiag  1:
 E= -285.223983871746     Delta-E=       -0.000000000120 Rises=F Damp=F
 DIIS: error= 6.00D-07 at cycle  14 NSaved=  14.
 NSaved=14 IEnMin=14 EnMin= -285.223983871746     IErMin=14 ErrMin= 6.00D-07
 ErrMax= 6.00D-07 EMaxC= 1.00D-01 BMatC= 5.13D-11 BMatP= 1.65D-10
 IDIUse=1 WtCom= 1.00D+00 WtEn= 0.00D+00
 Coeff-Com: -0.129D-05-0.312D-06 0.347D-05 0.772D-06-0.739D-05-0.445D-06
 Coeff-Com: -0.937D-04-0.507D-03-0.267D-02-0.732D-02-0.148D-02 0.504D-01
 Coeff-Com:  0.225D+00 0.737D+00
 Coeff:     -0.129D-05-0.312D-06 0.347D-05 0.772D-06-0.739D-05-0.445D-06
 Coeff:     -0.937D-04-0.507D-03-0.267D-02-0.732D-02-0.148D-02 0.504D-01
 Coeff:      0.225D+00 0.737D+00
 Gap=     0.160 Goal=   None    Shift=    0.000
 RMSDP=4.13D-08 MaxDP=9.97D-07 DE=-1.20D-10 OVMax= 1.93D-06

 SCF Done:  E(RB3PW91) =  -285.223983872     A.U. after   14 cycles
             Convg  =    0.4132D-07             -V/T =  2.1365
 KE= 2.509681804062D+02 PE=-9.416317107612D+02 EE= 2.652572951680D+02
 Leave Link  502 at Wed Oct 26 16:56:31 2016, MaxMem= 3370123264 cpu:      40.7
 (Enter /opt/qcapps/g09/l801.exe)
 Range of M.O.s used for correlation:     1    95
 NBasis=    95 NAE=    19 NBE=    19 NFC=     0 NFV=     0
 NROrb=     95 NOA=    19 NOB=    19 NVA=    76 NVB=    76
 Leave Link  801 at Wed Oct 26 16:56:31 2016, MaxMem= 3370123264 cpu:       0.3
 (Enter /opt/qcapps/g09/l1101.exe)
 Using compressed storage, NAtomX=     6.
 Will process   7 centers per pass.
   1 Symmetry operations used in ECPInt.
 ECPInt:  NShTT=     561 NPrTT=    2216 LenC2=     559 LenP2D=    1842.
 LDataN:  DoStor=T MaxTD1= 7 Len=  274
 Leave Link 1101 at Wed Oct 26 16:56:31 2016, MaxMem= 3370123264 cpu:       3.3
 (Enter /opt/qcapps/g09/l1102.exe)
 Symmetrizing basis deriv contribution to polar:
 IMax=3 JMax=2 DiffMx= 0.00D+00
 Leave Link 1102 at Wed Oct 26 16:56:32 2016, MaxMem= 3370123264 cpu:       0.3
 (Enter /opt/qcapps/g09/l1110.exe)
 Forming Gx(P) for the SCF density, NAtomX=     6.
 Integral derivatives from FoFDir/FoFCou, PRISM(SPDF).
 Do as many integral derivatives as possible in FoFDir.
 G2DrvN: MDV=    3370123112.
 G2DrvN: will do     7 centers at a time, making    1 passes doing MaxLOS=3.
 Calling FoFCou, ICntrl=  3107 FMM=F I1Cent=   0 AccDes= 0.00D+00.
 FoFCou: FMM=F IPFlag=           0 FMFlag=      100000 FMFlg1=           0
         NFxFlg=           0 DoJE=F BraDBF=F KetDBF=F FulRan=T
         Omega=  0.000000  0.000000  1.000000  0.000000  0.000000 ICntrl=    3107 IOpCl=  0
         NMat0=    1 NMatS0=    1 NMatT0=    0 NMatD0=    1 NMtDS0=    0 NMtDT0=    0
         I1Cent=           0 NGrid=           0.
 Symmetry not used in FoFCou.
 FoFDir/FoFCou used for L=0 through L=3.
 End of G2Drv Frequency-dependent properties file   721 does not exist.
 End of G2Drv Frequency-dependent properties file   722 does not exist.
 Leave Link 1110 at Wed Oct 26 16:56:37 2016, MaxMem= 3370123264 cpu:      44.3
 (Enter /opt/qcapps/g09/l1002.exe)
 Minotr:  Closed shell wavefunction.
          IDoAtm=111111
          Direct CPHF calculation.
          Differentiating once with respect to electric field.
                with respect to dipole field.
          Differentiating once with respect to nuclear coordinates.
          Requested convergence is 1.0D-08 RMS, and 1.0D-07 maximum.
          Secondary convergence is 1.0D-12 RMS, and 1.0D-12 maximum.
          NewPWx=T KeepS1=F KeepF1=F KeepIn=T MapXYZ=F SortEE=F KeepMc=T.
          MDV=    3370123200 using IRadAn=       1.
 Generate precomputed XC quadrature information.
          Keep R1 ints in memory in canonical form, NReq=16851278.
 Symmetry not used in FoFDir.
 MinBra= 0 MaxBra= 3 Meth= 1.
 IRaf=       0 NMat=   1 IRICut=       1 DoRegI=T DoRafI=F ISym2E= 0 JSym2E=0.
          Solving linear equations simultaneously, MaxMat=       0.
          There are    21 degrees of freedom in the 1st order CPHF.  IDoFFX=5.
     18 vectors produced by pass  0 Test12= 6.88D-15 4.76D-09 XBig12= 7.77D+01 3.38D+00.
 AX will form    18 AO Fock derivatives at one time.
     18 vectors produced by pass  1 Test12= 6.88D-15 4.76D-09 XBig12= 9.30D+01 3.14D+00.
     18 vectors produced by pass  2 Test12= 6.88D-15 4.76D-09 XBig12= 1.35D+00 4.02D-01.
     18 vectors produced by pass  3 Test12= 6.88D-15 4.76D-09 XBig12= 1.17D-02 4.22D-02.
     18 vectors produced by pass  4 Test12= 6.88D-15 4.76D-09 XBig12= 6.74D-05 2.11D-03.
     18 vectors produced by pass  5 Test12= 6.88D-15 4.76D-09 XBig12= 3.20D-07 1.34D-04.
     14 vectors produced by pass  6 Test12= 6.88D-15 4.76D-09 XBig12= 1.41D-09 1.18D-05.
      5 vectors produced by pass  7 Test12= 6.88D-15 4.76D-09 XBig12= 2.98D-12 3.78D-07.
      2 vectors produced by pass  8 Test12= 6.88D-15 4.76D-09 XBig12= 5.84D-15 1.55D-08.
 Inverted reduced A of dimension   129 with in-core refinement.
 FullF1:  Do perturbations    1 to     3.
 Isotropic polarizability for W=    0.000000       36.91 Bohr**3.
 End of Minotr Frequency-dependent properties file   721 does not exist.
 End of Minotr Frequency-dependent properties file   722 does not exist.
 Leave Link 1002 at Wed Oct 26 16:56:46 2016, MaxMem= 3370123264 cpu:      72.8
 (Enter /opt/qcapps/g09/l601.exe)
 Copying SCF densities to generalized density rwf, IOpCl= 0 IROHF=0.

 **********************************************************************

            Population analysis using the SCF density.

 **********************************************************************

 Orbital symmetries:
       Occupied  (A) (A) (A) (A) (A) (A) (A) (A) (A) (A) (A) (A)
                 (A) (A) (A) (A) (A) (A) (A)
       Virtual   (A) (A) (A) (A) (A) (A) (A) (A) (A) (A) (A) (A)
                 (A) (A) (A) (A) (A) (A) (A) (A) (A) (A) (A) (A)
                 (A) (A) (A) (A) (A) (A) (A) (A) (A) (A) (A) (A)
                 (A) (A) (A) (A) (A) (A) (A) (A) (A) (A) (A) (A)
                 (A) (A) (A) (A) (A) (A) (A) (A) (A) (A) (A) (A)
                 (A) (A) (A) (A) (A) (A) (A) (A) (A) (A) (A) (A)
                 (A) (A) (A) (A)
 The electronic state is 1-A.
 Alpha  occ. eigenvalues --  -19.25029 -19.07352 -19.07350  -2.43989  -1.48531
 Alpha  occ. eigenvalues --   -1.48243  -1.47545  -1.12224  -0.83471  -0.81717
 Alpha  occ. eigenvalues --   -0.63720  -0.51585  -0.43472  -0.31586  -0.30426
 Alpha  occ. eigenvalues --   -0.29434  -0.27749  -0.26962  -0.23339
 Alpha virt. eigenvalues --   -0.07339  -0.04736  -0.03238   0.01420   0.01456
 Alpha virt. eigenvalues --    0.01684   0.02392   0.04211   0.04489   0.07464
 Alpha virt. eigenvalues --    0.09630   0.09723   0.11973   0.14131   0.14983
 Alpha virt. eigenvalues --    0.15447   0.15971   0.17011   0.24008   0.25208
 Alpha virt. eigenvalues --    0.26210   0.53257   0.53330   0.54607   0.57397
 Alpha virt. eigenvalues --    0.59223   0.77602   0.81707   0.89216   0.94746
 Alpha virt. eigenvalues --    0.96880   1.01063   1.02328   1.07382   1.11315
 Alpha virt. eigenvalues --    1.12040   1.13616   1.20334   1.26177   1.29262
 Alpha virt. eigenvalues --    1.34236   1.34960   1.35683   1.36401   1.36934
 Alpha virt. eigenvalues --    1.42740   1.47162   1.50616   1.65008   1.69985
 Alpha virt. eigenvalues --    1.74096   1.80216   1.88797   1.94218   1.96311
 Alpha virt. eigenvalues --    1.98670   2.00403   2.06243   2.19117   2.27801
 Alpha virt. eigenvalues --    2.30257   2.34488   2.40846   2.43954   2.48607
 Alpha virt. eigenvalues --    2.58724   2.60150   2.76596   2.92913   2.95351
 Alpha virt. eigenvalues --    3.33584   3.47660  24.36335  24.53739  24.75465
 Alpha virt. eigenvalues --   35.60139
     Molecular Orbital Coefficients:
                           1         2         3         4         5
                           O         O         O         O         O
     Eigenvalues --   -19.25029 -19.07352 -19.07350  -2.43989  -1.48531
   1 1   Ti 1S         -0.00004  -0.00011   0.00000   0.39411   0.00000
   2        2S         -0.00009  -0.00096  -0.00001   0.71118   0.00000
   3        3S         -0.00046   0.00143   0.00001   0.51919   0.00000
   4        4S          0.00352   0.00849   0.00007   0.01072   0.00000
   5        5S         -0.00135  -0.00273  -0.00002  -0.00538   0.00000
   6        6S          0.00026   0.00058   0.00000   0.00149   0.00000
   7        7PX         0.00011  -0.00002   0.00000   0.00085  -0.00001
   8        7PY         0.00000   0.00000   0.00006   0.00000   0.10097
   9        7PZ        -0.00004  -0.00006   0.00000   0.00073   0.00000
  10        8PX         0.00053  -0.00016   0.00000   0.00613  -0.00006
  11        8PY         0.00000   0.00000   0.00042   0.00000   0.68644
  12        8PZ        -0.00019  -0.00036   0.00000   0.00612   0.00002
  13        9PX        -0.00079   0.00087   0.00001  -0.00152  -0.00003
  14        9PY         0.00000   0.00002  -0.00221   0.00000   0.39747
  15        9PZ         0.00036   0.00157   0.00001  -0.00796   0.00001
  16       10PX        -0.00319   0.00179   0.00002  -0.00068   0.00000
  17       10PY         0.00000   0.00005  -0.00611   0.00000   0.00680
  18       10PZ         0.00055   0.00334   0.00003  -0.00209   0.00000
  19       11PX         0.00091  -0.00037   0.00000   0.00016   0.00000
  20       11PY         0.00000  -0.00001   0.00133   0.00000  -0.00183
  21       11PZ        -0.00030  -0.00086  -0.00001   0.00091   0.00000
  22       12D 0       -0.00005  -0.00008   0.00000   0.00309   0.00000
  23       12D+1        0.00005   0.00011   0.00000  -0.00199   0.00000
  24       12D-1        0.00000   0.00000  -0.00017   0.00000   0.00816
  25       12D+2        0.00000  -0.00022   0.00000   0.00481   0.00000
  26       12D-2        0.00000   0.00000  -0.00015   0.00000   0.00745
  27       13D 0       -0.00082  -0.00038   0.00000   0.00051   0.00000
  28       13D+1       -0.00095   0.00061   0.00001  -0.00035   0.00000
  29       13D-1        0.00000   0.00002  -0.00209   0.00000  -0.00095
  30       13D+2        0.00161  -0.00118  -0.00001   0.00014   0.00000
  31       13D-2        0.00000   0.00001  -0.00095   0.00000   0.00039
  32       14D 0       -0.00010  -0.00008   0.00000  -0.00029   0.00000
  33       14D+1        0.00017   0.00022   0.00000   0.00007   0.00000
  34       14D-1        0.00000   0.00001  -0.00101   0.00000  -0.00119
  35       14D+2        0.00032  -0.00062  -0.00001  -0.00002   0.00000
  36       14D-2        0.00000   0.00000  -0.00018   0.00000  -0.00065
  37       15F 0       -0.00022   0.00029   0.00000  -0.00073   0.00000
  38       15F+1        0.00032   0.00005   0.00000  -0.00011   0.00000
  39       15F-1        0.00000   0.00000   0.00005   0.00000   0.00249
  40       15F+2        0.00026   0.00048   0.00000  -0.00089   0.00000
  41       15F-2        0.00000   0.00000   0.00037   0.00000   0.00335
  42       15F+3       -0.00051   0.00031   0.00000  -0.00052   0.00000
  43       15F-3        0.00000   0.00000  -0.00015   0.00000  -0.00043
  44 2   O  1S          0.00003   0.69787   0.70942  -0.00552   0.02670
  45        2S          0.00011   0.02020   0.02036   0.00890  -0.05510
  46        2PX        -0.00010  -0.00026  -0.00026  -0.00299   0.01404
  47        2PY         0.00001   0.00070   0.00048   0.00853  -0.03081
  48        2PZ         0.00001  -0.00037  -0.00032  -0.00480   0.02247
  49        3S         -0.00004  -0.01101  -0.01131   0.00903  -0.03863
  50        3PX         0.00035   0.00063   0.00078  -0.00157   0.00455
  51        3PY        -0.00016  -0.00208  -0.00137   0.00470  -0.00705
  52        3PZ         0.00006   0.00091   0.00085  -0.00246   0.00671
  53        4D 0        0.00005   0.00007   0.00007  -0.00063  -0.00008
  54        4D+1        0.00005  -0.00010  -0.00003   0.00074  -0.00168
  55        4D-1        0.00010   0.00012   0.00024  -0.00220   0.00406
  56        4D+2       -0.00003   0.00022   0.00008  -0.00178   0.00147
  57        4D-2        0.00000   0.00007   0.00018  -0.00139   0.00252
  58 3   O  1S          0.00003   0.70943  -0.69787  -0.00552  -0.02670
  59        2S          0.00011   0.02053  -0.02002   0.00890   0.05510
  60        2PX        -0.00010  -0.00026   0.00025  -0.00299  -0.01403
  61        2PY        -0.00001  -0.00071   0.00047  -0.00853  -0.03081
  62        2PZ         0.00001  -0.00038   0.00032  -0.00480  -0.02247
  63        3S         -0.00004  -0.01120   0.01113   0.00903   0.03863
  64        3PX         0.00035   0.00064  -0.00077  -0.00157  -0.00455
  65        3PY         0.00016   0.00210  -0.00134  -0.00470  -0.00705
  66        3PZ         0.00006   0.00092  -0.00084  -0.00246  -0.00671
  67        4D 0        0.00005   0.00007  -0.00007  -0.00063   0.00008
  68        4D+1        0.00005  -0.00010   0.00003   0.00074   0.00168
  69        4D-1       -0.00010  -0.00013   0.00024   0.00220   0.00406
  70        4D+2       -0.00003   0.00022  -0.00008  -0.00178  -0.00147
  71        4D-2        0.00000  -0.00008   0.00018   0.00139   0.00252
  72 4   O  1S          0.99497  -0.00002   0.00000  -0.00095   0.00000
  73        2S          0.02882   0.00017   0.00000   0.00098   0.00000
  74        2PX         0.00000   0.00012   0.00000   0.00160   0.00000
  75        2PY         0.00000   0.00000  -0.00006   0.00000   0.00166
  76        2PZ         0.00182   0.00005   0.00000  -0.00029   0.00000
  77        3S         -0.01249  -0.00041   0.00000   0.00278   0.00000
  78        3PX        -0.00221  -0.00044   0.00000   0.00221   0.00000
  79        3PY         0.00000   0.00000   0.00023   0.00000   0.00330
  80        3PZ        -0.00021  -0.00035   0.00000  -0.00004   0.00000
  81        4D 0        0.00008   0.00003   0.00000  -0.00051   0.00000
  82        4D+1       -0.00024  -0.00003   0.00000  -0.00024   0.00000
  83        4D-1        0.00000   0.00000   0.00005   0.00000   0.00011
  84        4D+2       -0.00108   0.00003   0.00000   0.00083   0.00000
  85        4D-2        0.00000   0.00000   0.00009   0.00000   0.00123
  86 5   H  1S         -0.00076   0.00008  -0.00016   0.00000  -0.00003
  87        2S          0.00104   0.00006   0.00081  -0.00018  -0.00033
  88        3PX        -0.00023   0.00000   0.00009  -0.00013   0.00005
  89        3PY         0.00140  -0.00006   0.00000  -0.00007  -0.00008
  90        3PZ         0.00107   0.00000   0.00000  -0.00003   0.00003
  91 6   H  1S         -0.00076   0.00008   0.00016   0.00000   0.00003
  92        2S          0.00104   0.00007  -0.00081  -0.00018   0.00033
  93        3PX        -0.00023   0.00000  -0.00009  -0.00013  -0.00005
  94        3PY        -0.00140   0.00006   0.00000   0.00007  -0.00008
  95        3PZ         0.00107   0.00000   0.00000  -0.00003  -0.00003
                           6         7         8         9        10
                           O         O         O         O         O
     Eigenvalues --    -1.48243  -1.47545  -1.12224  -0.83471  -0.81717
   1 1   Ti 1S         -0.00391  -0.00243  -0.01074  -0.06655   0.00000
   2        2S         -0.00028  -0.00516  -0.02405  -0.15480   0.00000
   3        3S         -0.02148  -0.00212  -0.00990  -0.07574   0.00000
   4        4S         -0.00583   0.00123  -0.00371   0.02389   0.00000
   5        5S          0.00260  -0.00091   0.00936   0.01040   0.00000
   6        6S         -0.00053   0.00009  -0.00063  -0.00116   0.00000
   7        7PX         0.03832   0.09732   0.00873  -0.01091   0.00000
   8        7PY         0.00000   0.00001   0.00000   0.00000   0.03148
   9        7PZ         0.09621  -0.03960  -0.00213  -0.01744   0.00000
  10        8PX         0.26042   0.66160   0.06083  -0.07786  -0.00002
  11        8PY         0.00000   0.00007   0.00000  -0.00001   0.22466
  12        8PZ         0.65361  -0.26911  -0.01489  -0.12444   0.00000
  13        9PX         0.14982   0.37601   0.03060  -0.03894  -0.00001
  14        9PY         0.00000   0.00004   0.00000  -0.00001   0.11451
  15        9PZ         0.37579  -0.15275  -0.00847  -0.06418   0.00000
  16       10PX         0.00180   0.00777   0.00382  -0.00554   0.00000
  17       10PY         0.00000   0.00000   0.00000   0.00000   0.00169
  18       10PZ         0.00900  -0.00365  -0.00107  -0.00791   0.00000
  19       11PX        -0.00078  -0.00139  -0.00719   0.00429   0.00000
  20       11PY         0.00000   0.00000   0.00000   0.00000  -0.01006
  21       11PZ        -0.00228   0.00070   0.00281   0.00758   0.00000
  22       12D 0       -0.00549   0.00081  -0.00602  -0.02437   0.00000
  23       12D+1        0.00224  -0.00274  -0.00509   0.03506   0.00001
  24       12D-1        0.00000   0.00000   0.00000   0.00000  -0.10022
  25       12D+2       -0.00517  -0.00011   0.01066  -0.07739   0.00001
  26       12D-2        0.00000   0.00000   0.00000  -0.00001  -0.06121
  27       13D 0       -0.00564   0.00219   0.00035  -0.00473   0.00000
  28       13D+1       -0.00327  -0.00305   0.00124   0.00161   0.00000
  29       13D-1        0.00000   0.00000   0.00000   0.00000  -0.01364
  30       13D+2       -0.00322  -0.00201  -0.00056  -0.00985   0.00000
  31       13D-2        0.00000   0.00000   0.00000   0.00000  -0.00962
  32       14D 0        0.00090  -0.00039  -0.00123  -0.00138   0.00000
  33       14D+1       -0.00009   0.00051  -0.00331   0.00029   0.00000
  34       14D-1        0.00000   0.00000   0.00000   0.00000  -0.00226
  35       14D+2        0.00156   0.00048   0.00229  -0.00193   0.00000
  36       14D-2        0.00000   0.00000   0.00000   0.00000  -0.00187
  37       15F 0       -0.00135  -0.00030  -0.00075  -0.00890   0.00000
  38       15F+1       -0.00029   0.00046   0.00110  -0.00089   0.00000
  39       15F-1        0.00000   0.00000   0.00000   0.00000  -0.00005
  40       15F+2       -0.00286  -0.00162   0.00101  -0.01098   0.00000
  41       15F-2        0.00000   0.00000   0.00000   0.00000  -0.00823
  42       15F+3       -0.00235   0.00094  -0.00177  -0.00923   0.00000
  43       15F-3        0.00000   0.00000   0.00000   0.00000   0.00554
  44 2   O  1S         -0.01738  -0.00302  -0.00157  -0.16067  -0.16094
  45        2S          0.03581   0.00635   0.00257   0.35259   0.35650
  46        2PX        -0.00589   0.00741   0.00029  -0.01511  -0.00811
  47        2PY         0.02587   0.00456   0.00066   0.02526   0.02445
  48        2PZ        -0.00608  -0.00634  -0.00057  -0.02301  -0.01171
  49        3S          0.02397   0.00399   0.00413   0.38912   0.39098
  50        3PX        -0.00046   0.00415  -0.00170  -0.01379  -0.01217
  51        3PY         0.00771   0.00130   0.00105   0.02889   0.02358
  52        3PZ         0.00059  -0.00233  -0.00048  -0.02016  -0.01636
  53        4D 0       -0.00189   0.00077  -0.00026  -0.00089  -0.00166
  54        4D+1       -0.00002  -0.00062  -0.00001   0.00111  -0.00022
  55        4D-1       -0.00136  -0.00133  -0.00018  -0.00425  -0.00413
  56        4D+2       -0.00279  -0.00115   0.00026  -0.00269  -0.00260
  57        4D-2       -0.00125   0.00161  -0.00029  -0.00268  -0.00269
  58 3   O  1S         -0.01738  -0.00302  -0.00157  -0.16068   0.16094
  59        2S          0.03581   0.00635   0.00257   0.35260  -0.35649
  60        2PX        -0.00589   0.00741   0.00029  -0.01510   0.00810
  61        2PY        -0.02587  -0.00456  -0.00066  -0.02526   0.02446
  62        2PZ        -0.00608  -0.00634  -0.00057  -0.02301   0.01171
  63        3S          0.02396   0.00399   0.00413   0.38913  -0.39097
  64        3PX        -0.00046   0.00415  -0.00170  -0.01379   0.01217
  65        3PY        -0.00771  -0.00130  -0.00105  -0.02890   0.02358
  66        3PZ         0.00059  -0.00233  -0.00048  -0.02016   0.01636
  67        4D 0       -0.00189   0.00077  -0.00026  -0.00089   0.00166
  68        4D+1       -0.00002  -0.00062  -0.00001   0.00111   0.00022
  69        4D-1        0.00136   0.00133   0.00018   0.00425  -0.00413
  70        4D+2       -0.00279  -0.00115   0.00026  -0.00269   0.00260
  71        4D-2        0.00125  -0.00161   0.00029   0.00268  -0.00269
  72 4   O  1S          0.00214   0.01164  -0.21370   0.00307   0.00000
  73        2S         -0.00450  -0.02366   0.47172  -0.00794   0.00000
  74        2PX        -0.00224  -0.01305  -0.02033   0.00503   0.00000
  75        2PY         0.00000   0.00000   0.00000   0.00000  -0.00220
  76        2PZ         0.00180  -0.00031   0.09839  -0.00387   0.00000
  77        3S         -0.00406  -0.02483   0.45120  -0.00677   0.00000
  78        3PX        -0.00189  -0.00834   0.00802   0.00462   0.00000
  79        3PY         0.00000   0.00000   0.00000   0.00000  -0.00356
  80        3PZ         0.00244  -0.00091   0.03496  -0.00013   0.00000
  81        4D 0        0.00010   0.00108   0.00015  -0.00018   0.00000
  82        4D+1        0.00115   0.00018  -0.00464   0.00031   0.00000
  83        4D-1        0.00000   0.00000   0.00000   0.00000  -0.00078
  84        4D+2       -0.00027  -0.00155  -0.00062  -0.00028   0.00000
  85        4D-2        0.00000   0.00000   0.00000   0.00000  -0.00020
  86 5   H  1S         -0.00055  -0.00391   0.14275  -0.00288  -0.00111
  87        2S         -0.00092   0.00085   0.00085  -0.00056  -0.00201
  88        3PX        -0.00005  -0.00042   0.00335   0.00033  -0.00034
  89        3PY         0.00017   0.00071  -0.02073   0.00070  -0.00018
  90        3PZ         0.00001   0.00055  -0.01148   0.00022  -0.00010
  91 6   H  1S         -0.00055  -0.00391   0.14275  -0.00288   0.00111
  92        2S         -0.00092   0.00085   0.00086  -0.00056   0.00201
  93        3PX        -0.00005  -0.00042   0.00335   0.00033   0.00034
  94        3PY        -0.00017  -0.00071   0.02073  -0.00070  -0.00018
  95        3PZ         0.00001   0.00055  -0.01148   0.00022   0.00010
                          11        12        13        14        15
                           O         O         O         O         O
     Eigenvalues --    -0.63720  -0.51585  -0.43472  -0.31586  -0.30426
   1 1   Ti 1S          0.00000   0.02450  -0.02070   0.03430   0.00000
   2        2S          0.00000   0.05748  -0.04692   0.08409   0.00000
   3        3S          0.00000   0.03450  -0.03462   0.05371   0.00000
   4        4S          0.00000  -0.08770   0.08254  -0.12898   0.00000
   5        5S          0.00000   0.00634  -0.02778   0.07790   0.00000
   6        6S          0.00000   0.00036  -0.00173  -0.01495   0.00000
   7        7PX         0.00000  -0.01042   0.00860  -0.00150   0.00000
   8        7PY        -0.00183   0.00000   0.00000   0.00000   0.01235
   9        7PZ         0.00000  -0.00070  -0.00358  -0.00247   0.00000
  10        8PX         0.00000  -0.07578   0.06283  -0.01049  -0.00001
  11        8PY        -0.01314  -0.00001   0.00000   0.00000   0.09230
  12        8PZ         0.00000  -0.00500  -0.02621  -0.01732   0.00000
  13        9PX         0.00000  -0.02674   0.02563  -0.00407   0.00000
  14        9PY        -0.00626   0.00000   0.00000   0.00000   0.04023
  15        9PZ         0.00000  -0.00121  -0.01074  -0.00472   0.00000
  16       10PX         0.00000   0.05668  -0.03432   0.04277  -0.00001
  17       10PY         0.01029   0.00000   0.00000   0.00000   0.09601
  18       10PZ         0.00000   0.00618   0.04236   0.07266   0.00000
  19       11PX         0.00000  -0.00709   0.02966   0.00918   0.00000
  20       11PY         0.00143   0.00000   0.00000   0.00000   0.03330
  21       11PZ         0.00000   0.00639  -0.00049   0.01327   0.00000
  22       12D 0        0.00000   0.04127  -0.01857   0.20051   0.00000
  23       12D+1        0.00000  -0.00036  -0.06392   0.05668   0.00003
  24       12D-1        0.00184   0.00000   0.00000   0.00001  -0.37216
  25       12D+2        0.00000  -0.06789   0.06110   0.27952   0.00004
  26       12D-2       -0.02309  -0.00001   0.00001   0.00005  -0.21696
  27       13D 0        0.00000   0.01727  -0.00433   0.08828   0.00000
  28       13D+1        0.00000  -0.00113  -0.03001   0.02959   0.00001
  29       13D-1        0.00280   0.00000   0.00000   0.00000  -0.11551
  30       13D+2        0.00000  -0.02599   0.01819   0.12164   0.00001
  31       13D-2       -0.01333   0.00000   0.00000   0.00002  -0.06826
  32       14D 0        0.00000   0.00997   0.01582   0.01748   0.00000
  33       14D+1        0.00000  -0.00973  -0.02026   0.01929   0.00000
  34       14D-1        0.00149   0.00000   0.00000   0.00000   0.03178
  35       14D+2        0.00000  -0.00881  -0.01765   0.00315   0.00000
  36       14D-2       -0.00415   0.00000   0.00000   0.00000   0.01246
  37       15F 0        0.00000  -0.00026  -0.00341   0.00572   0.00000
  38       15F+1        0.00000  -0.00544   0.00169   0.00518   0.00000
  39       15F-1       -0.00032   0.00000   0.00000   0.00000  -0.00696
  40       15F+2        0.00000   0.00017   0.00511   0.00858   0.00000
  41       15F-2       -0.00252   0.00000   0.00000   0.00000  -0.01395
  42       15F+3        0.00000   0.00761  -0.00250   0.00621   0.00000
  43       15F-3        0.00360   0.00000   0.00000   0.00000   0.00055
  44 2   O  1S         -0.00231  -0.00217   0.00287  -0.01752   0.01911
  45        2S          0.00572   0.00512  -0.00713   0.03729  -0.03889
  46        2PX         0.00758  -0.00652  -0.01358   0.19814  -0.03750
  47        2PY         0.00331  -0.00063  -0.00754  -0.00300   0.38424
  48        2PZ        -0.00325   0.00326   0.01053   0.32565  -0.04423
  49        3S          0.00494   0.00836  -0.01184   0.09371  -0.09057
  50        3PX         0.00359  -0.00299  -0.00907   0.12004  -0.02015
  51        3PY        -0.00012   0.00022  -0.00227   0.00372   0.23439
  52        3PZ         0.00001   0.00029   0.00338   0.19765  -0.01950
  53        4D 0        0.00032   0.00013  -0.00106  -0.00908  -0.00686
  54        4D+1       -0.00029   0.00009  -0.00021  -0.00980  -0.00134
  55        4D-1       -0.00011  -0.00006   0.00066   0.00961  -0.00662
  56        4D+2       -0.00070  -0.00046   0.00183  -0.00653  -0.00945
  57        4D-2        0.00044  -0.00038  -0.00109   0.00572  -0.00507
  58 3   O  1S          0.00231  -0.00217   0.00287  -0.01752  -0.01911
  59        2S         -0.00573   0.00512  -0.00713   0.03729   0.03889
  60        2PX        -0.00758  -0.00652  -0.01359   0.19814   0.03742
  61        2PY         0.00331   0.00062   0.00754   0.00304   0.38425
  62        2PZ         0.00325   0.00325   0.01053   0.32565   0.04423
  63        3S         -0.00495   0.00836  -0.01184   0.09372   0.09057
  64        3PX        -0.00359  -0.00299  -0.00907   0.12004   0.02010
  65        3PY        -0.00012  -0.00022   0.00227  -0.00369   0.23440
  66        3PZ        -0.00001   0.00029   0.00338   0.19765   0.01950
  67        4D 0       -0.00032   0.00013  -0.00106  -0.00908   0.00686
  68        4D+1        0.00029   0.00009  -0.00021  -0.00979   0.00134
  69        4D-1       -0.00011   0.00006  -0.00066  -0.00961  -0.00662
  70        4D+2        0.00070  -0.00047   0.00183  -0.00653   0.00945
  71        4D-2        0.00044   0.00038   0.00109  -0.00573  -0.00506
  72 4   O  1S          0.00000   0.06223   0.02291  -0.00154   0.00000
  73        2S          0.00000  -0.13911  -0.06031   0.00448   0.00000
  74        2PX        -0.00003  -0.30417   0.54052  -0.00668   0.00000
  75        2PY         0.52817  -0.00001   0.00003   0.00000  -0.01290
  76        2PZ        -0.00001   0.47744   0.32327   0.00055   0.00000
  77        3S          0.00000  -0.25356  -0.07484   0.00557   0.00000
  78        3PX        -0.00001  -0.20106   0.39312  -0.01149   0.00000
  79        3PY         0.27592   0.00000   0.00002   0.00000  -0.00674
  80        3PZ         0.00000   0.30273   0.22793  -0.00009   0.00000
  81        4D 0        0.00000   0.02064   0.01102   0.00074   0.00000
  82        4D+1        0.00000  -0.00731   0.01860  -0.00061   0.00000
  83        4D-1        0.02452   0.00000   0.00000   0.00000  -0.00227
  84        4D+2        0.00000  -0.00514   0.00336   0.00186   0.00000
  85        4D-2       -0.00210   0.00000   0.00000   0.00000   0.00180
  86 5   H  1S          0.23780   0.13837   0.02421  -0.00143  -0.00792
  87        2S          0.09646   0.08686   0.00340  -0.00118  -0.01950
  88        3PX         0.00485  -0.00543   0.01706  -0.00064  -0.00021
  89        3PY        -0.00849  -0.01429  -0.00286  -0.00088   0.00041
  90        3PZ        -0.01563   0.00446   0.00850   0.00014   0.00018
  91 6   H  1S         -0.23780   0.13837   0.02421  -0.00143   0.00792
  92        2S         -0.09647   0.08686   0.00340  -0.00118   0.01950
  93        3PX        -0.00485  -0.00543   0.01706  -0.00064   0.00021
  94        3PY        -0.00849   0.01429   0.00286   0.00088   0.00041
  95        3PZ         0.01563   0.00446   0.00850   0.00014  -0.00018
                          16        17        18        19        20
                           O         O         O         O         V
     Eigenvalues --    -0.29434  -0.27749  -0.26962  -0.23339  -0.07339
   1 1   Ti 1S          0.00000   0.00273  -0.07257   0.00000  -0.06620
   2        2S          0.00000   0.00606  -0.18143   0.00000  -0.15174
   3        3S          0.00000   0.00618  -0.09715   0.00000  -0.16100
   4        4S          0.00000   0.00204   0.19583   0.00000   0.42408
   5        5S          0.00000  -0.03558  -0.13952   0.00000   0.29495
   6        6S          0.00000   0.00785   0.02292   0.00000   0.15607
   7        7PX         0.00000  -0.01272  -0.00898   0.00000  -0.00208
   8        7PY        -0.00102   0.00000   0.00000  -0.02064   0.00000
   9        7PZ         0.00000   0.00785  -0.01442   0.00000   0.01639
  10        8PX         0.00000  -0.09375  -0.06689   0.00001  -0.01581
  11        8PY        -0.00765  -0.00001  -0.00001  -0.15370   0.00000
  12        8PZ         0.00000   0.05787  -0.10737   0.00000   0.12289
  13        9PX         0.00000  -0.03143  -0.02780   0.00001   0.00336
  14        9PY        -0.00118   0.00000   0.00000  -0.06545   0.00000
  15        9PZ         0.00000   0.01962  -0.04674   0.00000   0.02766
  16       10PX         0.00000   0.15454  -0.00216  -0.00001   0.05884
  17       10PY        -0.01629   0.00001   0.00000   0.10445   0.00000
  18       10PZ         0.00000  -0.08563   0.00897   0.00000  -0.33137
  19       11PX         0.00000   0.01261  -0.00546   0.00000  -0.09642
  20       11PY         0.00329   0.00000   0.00000  -0.01829  -0.00001
  21       11PZ         0.00000  -0.00237  -0.01523   0.00000  -0.12461
  22       12D 0        0.00000  -0.20292   0.04985   0.00000   0.33595
  23       12D+1        0.00001   0.09512   0.24330   0.00000  -0.14557
  24       12D-1       -0.17252   0.00001   0.00002   0.05233  -0.00001
  25       12D+2       -0.00005   0.12521  -0.13184  -0.00001   0.07338
  26       12D-2        0.29229   0.00002  -0.00003   0.03053   0.00002
  27       13D 0        0.00000  -0.08562   0.03501   0.00000   0.16568
  28       13D+1        0.00001   0.04284   0.07939   0.00000  -0.04861
  29       13D-1       -0.09026   0.00000   0.00001  -0.02075   0.00000
  30       13D+2       -0.00002   0.05119  -0.00482   0.00000   0.01282
  31       13D-2        0.13942   0.00001   0.00000  -0.01678   0.00001
  32       14D 0        0.00000  -0.01682   0.03424   0.00000   0.06020
  33       14D+1        0.00000   0.02243  -0.00043   0.00001  -0.02014
  34       14D-1       -0.03238   0.00000   0.00000  -0.05688   0.00000
  35       14D+2       -0.00001  -0.00427   0.05928   0.00001   0.02661
  36       14D-2        0.04379   0.00000   0.00001  -0.03559   0.00000
  37       15F 0        0.00000   0.00338  -0.00903   0.00000  -0.00461
  38       15F+1        0.00000  -0.00542   0.00046   0.00000  -0.00246
  39       15F-1       -0.01514   0.00000   0.00000  -0.02217   0.00000
  40       15F+2        0.00000   0.01413  -0.00913   0.00000   0.00161
  41       15F-2        0.00894   0.00000   0.00000  -0.01120   0.00000
  42       15F+3        0.00000  -0.01841  -0.01011   0.00001   0.00223
  43       15F-3        0.01233  -0.00001   0.00000  -0.02016   0.00000
  44 2   O  1S          0.00006  -0.00137   0.01733  -0.00807   0.01387
  45        2S          0.00099   0.00334  -0.04048   0.02253  -0.03692
  46        2PX        -0.32186   0.34012   0.00210   0.24034   0.03318
  47        2PY        -0.01056  -0.01302   0.41718   0.05400  -0.02244
  48        2PZ         0.20612  -0.20554  -0.02380   0.37823  -0.04419
  49        3S         -0.00717   0.00488  -0.06746   0.01578  -0.07205
  50        3PX        -0.21010   0.23211   0.00281   0.17490   0.02918
  51        3PY        -0.00755  -0.00726   0.28364   0.03555  -0.02377
  52        3PZ         0.13552  -0.14273  -0.01694   0.27753  -0.04141
  53        4D 0       -0.00927   0.00754  -0.00621  -0.00612   0.00069
  54        4D+1        0.00504  -0.00404  -0.00002  -0.00731  -0.00334
  55        4D-1        0.00724  -0.00758  -0.00416   0.00596   0.00449
  56        4D+2        0.00576  -0.00409  -0.01141  -0.00405   0.00098
  57        4D-2       -0.01105   0.01219  -0.00246   0.00363   0.00043
  58 3   O  1S         -0.00006  -0.00137   0.01733   0.00807   0.01387
  59        2S         -0.00099   0.00334  -0.04048  -0.02253  -0.03692
  60        2PX         0.32188   0.34011   0.00219  -0.24035   0.03317
  61        2PY        -0.01050   0.01309  -0.41718   0.05395   0.02245
  62        2PZ        -0.20613  -0.20554  -0.02379  -0.37823  -0.04419
  63        3S          0.00717   0.00488  -0.06746  -0.01578  -0.07205
  64        3PX         0.21011   0.23210   0.00287  -0.17490   0.02918
  65        3PY        -0.00751   0.00730  -0.28363   0.03551   0.02378
  66        3PZ        -0.13552  -0.14273  -0.01694  -0.27753  -0.04141
  67        4D 0        0.00927   0.00754  -0.00621   0.00612   0.00069
  68        4D+1       -0.00504  -0.00404  -0.00002   0.00730  -0.00334
  69        4D-1        0.00724   0.00757   0.00416   0.00597  -0.00449
  70        4D+2       -0.00575  -0.00409  -0.01141   0.00405   0.00098
  71        4D-2       -0.01105  -0.01219   0.00246   0.00363  -0.00043
  72 4   O  1S          0.00000  -0.00084   0.00103   0.00000   0.02937
  73        2S          0.00000   0.00440  -0.00115   0.00000  -0.07629
  74        2PX         0.00001   0.02579   0.02639   0.00000  -0.02452
  75        2PY         0.04580   0.00000   0.00000  -0.01771   0.00000
  76        2PZ         0.00000   0.06243   0.01990   0.00000  -0.01685
  77        3S          0.00001   0.00960  -0.00719   0.00000  -0.20289
  78        3PX         0.00000   0.01214   0.02035   0.00000  -0.01194
  79        3PY         0.03336   0.00000   0.00000  -0.01282   0.00000
  80        3PZ         0.00000   0.04256   0.02091   0.00000  -0.01944
  81        4D 0        0.00000   0.00266   0.00317   0.00000   0.00121
  82        4D+1        0.00000  -0.00328   0.00012   0.00000   0.00082
  83        4D-1        0.00230   0.00000   0.00000  -0.00117   0.00000
  84        4D+2        0.00000   0.00148  -0.00266   0.00000  -0.00108
  85        4D-2       -0.00610   0.00000   0.00000   0.00212   0.00000
  86 5   H  1S          0.01931   0.00762   0.00296  -0.00769   0.02257
  87        2S          0.01655   0.01551  -0.00300  -0.00310   0.09235
  88        3PX        -0.00143  -0.00023   0.00119   0.00075  -0.00153
  89        3PY        -0.00129  -0.00287  -0.00009   0.00063   0.00391
  90        3PZ        -0.00137   0.00039   0.00064   0.00010   0.00228
  91 6   H  1S         -0.01931   0.00762   0.00296   0.00769   0.02257
  92        2S         -0.01655   0.01551  -0.00300   0.00311   0.09235
  93        3PX         0.00144  -0.00023   0.00119  -0.00075  -0.00153
  94        3PY        -0.00129   0.00287   0.00009   0.00063  -0.00391
  95        3PZ         0.00137   0.00039   0.00064  -0.00010   0.00228
                          21        22        23        24        25
                           V         V         V         V         V
     Eigenvalues --    -0.04736  -0.03238   0.01420   0.01456   0.01684
   1 1   Ti 1S          0.01743   0.02131  -0.00001   0.00534   0.04135
   2        2S          0.04107   0.05286  -0.00003   0.00640   0.09768
   3        3S          0.03555   0.03062  -0.00004   0.04105   0.08788
   4        4S         -0.18769   0.05750   0.00010  -0.21624   0.07835
   5        5S          0.18945  -0.03729   0.00011   0.36617  -1.34890
   6        6S          0.20418  -0.30277  -0.00007  -0.53585   1.50385
   7        7PX         0.01304   0.00651   0.00000   0.00070  -0.00043
   8        7PY         0.00000   0.00000  -0.00613   0.00000   0.00000
   9        7PZ         0.00482   0.01141   0.00000   0.00234  -0.00409
  10        8PX         0.09839   0.04877   0.00000   0.00469  -0.00382
  11        8PY         0.00001   0.00000  -0.04622  -0.00003  -0.00003
[...]
          (Kelvin)            770.72   854.79  1442.24  1483.38  2353.48
                             5468.21  5611.55
 
 Zero-point correction=                           0.031229 (Hartree/Particle)
 Thermal correction to Energy=                    0.037093
 Thermal correction to Enthalpy=                  0.038037
 Thermal correction to Gibbs Free Energy=         0.001636
 Sum of electronic and zero-point Energies=           -285.192755
 Sum of electronic and thermal Energies=              -285.186891
 Sum of electronic and thermal Enthalpies=            -285.185947
 Sum of electronic and thermal Free Energies=         -285.222348
 
                     E (Thermal)             CV                S
                      KCal/Mol        Cal/Mol-Kelvin    Cal/Mol-Kelvin
 Total                   23.276             17.664             76.613
 Electronic               0.000              0.000              0.000
 Translational            0.889              2.981             39.656
 Rotational               0.889              2.981             25.343
 Vibrational             21.499             11.703             11.614
 Vibration     1          0.604              1.949              3.457
 Vibration     2          0.611              1.927              3.010
 Vibration     3          0.667              1.748              1.672
 Vibration     4          0.705              1.636              1.313
 Vibration     5          0.770              1.461              0.947
 Vibration     6          0.891              1.171              0.575
 Vibration     7          0.952              1.044              0.460
                       Q            Log10(Q)             Ln(Q)
 Total Bot       0.176883D+00         -0.752314         -1.732266
 Total V=0       0.409056D+14         13.611783         31.342288
 Vib (Bot)       0.602136D-13        -13.220305        -30.440878
 Vib (Bot)    1  0.205486D+01          0.312782          0.720208
 Vib (Bot)    2  0.162274D+01          0.210248          0.484114
 Vib (Bot)    3  0.751909D+00         -0.123835         -0.285140
 Vib (Bot)    4  0.588731D+00         -0.230083         -0.529787
 Vib (Bot)    5  0.439310D+00         -0.357229         -0.822550
 Vib (Bot)    6  0.296975D+00         -0.527281         -1.214108
 Vib (Bot)    7  0.252855D+00         -0.597129         -1.374939
 Vib (V=0)       0.139249D+02          1.143791          2.633676
 Vib (V=0)    1  0.261482D+01          0.417441          0.961194
 Vib (V=0)    2  0.219802D+01          0.342032          0.787557
 Vib (V=0)    3  0.140298D+01          0.147050          0.338596
 Vib (V=0)    4  0.127240D+01          0.104624          0.240906
 Vib (V=0)    5  0.116558D+01          0.066541          0.153217
 Vib (V=0)    6  0.108154D+01          0.034044          0.078390
 Vib (V=0)    7  0.106030D+01          0.025429          0.058552
 Electronic      0.100000D+01          0.000000          0.000000
 Translational   0.381023D+08          7.580951         17.455784
 Rotational      0.770977D+05          4.887041         11.252828
 
                                                              Frequency
                                                             IR Spectrum
 
     3   3                                                                     1                   11                                
     9   8                                                                     6                   00            5 5   4  3 2   11   
     0   0                                                                     3                   30            9 3   0  1 5   20   
     0   1                                                                     6                   12            4 6   4  9 9   60   
 
     X   X                                                                     X                   XX            X X   X  X X   X    
     X   X                                                                     X                   XX              X   X    X   X    
     X   X                                                                     X                    X              X   X    X   X    
     X   X                                                                     X                    X              X            X    
     X   X                                                                     X                    X              X            X    
     X                                                                                              X              X            X    
     X                                                                                              X              X            X    
     X                                                                                              X              X                 
                                                                                                    X              X                 
                                                                                                    X              X                 
                                                                                                    X              X                 
                                                                                                    X              X                 
                                                                                                    X              X                 
                                                                                                    X              X                 
                                                                                                    X                                
                                                                                                    X                                
                                                                                                    X                                
                                                                                                    X                                
                                                                                                    X                                
                                                                                                    X                                
 
 ***** Axes restored to original set *****
 -------------------------------------------------------------------
 Center     Atomic                   Forces (Hartrees/Bohr)
 Number     Number              X              Y              Z
 -------------------------------------------------------------------
      1       22          -0.000000129   -0.000002069   -0.000007519
      2        8          -0.000002028   -0.000000579    0.000006682
      3        8           0.000001228    0.000000713    0.000006992
      4        8           0.000001404   -0.000010998    0.000004187
      5        1           0.000003688    0.000006747   -0.000005011
      6        1          -0.000004162    0.000006187   -0.000005330
 -------------------------------------------------------------------
 Cartesian Forces:  Max     0.000010998 RMS     0.000005107
 Z-matrix is all fixed cartesians, so copy forces.
 Force constants in Cartesian coordinates: 
                1             2             3             4             5 
      1  0.595845D+00
      2 -0.277483D-04  0.182295D+00
      3  0.732609D-05  0.147080D+00  0.346851D+00
      4 -0.287419D+00 -0.964792D-01 -0.198162D+00  0.320803D+00
      5 -0.817354D-01 -0.551864D-01 -0.826117D-01  0.970528D-01  0.454347D-01
      6 -0.166694D+00 -0.835318D-01 -0.167835D+00  0.181277D+00  0.689821D-01
      7 -0.287390D+00  0.965122D-01  0.198153D+00 -0.356398D-01 -0.849182D-02
      8  0.817678D-01 -0.552119D-01 -0.826414D-01  0.849864D-02  0.103587D-01
      9  0.166685D+00 -0.835581D-01 -0.167841D+00  0.161440D-01  0.182053D-01
     10 -0.294652D-01 -0.271400D-05  0.000000D+00  0.639717D-02 -0.705073D-02
     11 -0.174538D-05 -0.563533D-01  0.197703D-02 -0.919279D-02 -0.531465D-02
     12  0.182730D-05  0.182158D-01 -0.129116D-01  0.956532D-03 -0.353326D-02
     13  0.421247D-02 -0.601511D-02  0.179027D-02  0.223877D-03  0.808272D-03
     14 -0.143103D-01 -0.776961D-02  0.809814D-02  0.258880D-02 -0.225519D-03
     15  0.269501D-02  0.897066D-03  0.867976D-03 -0.414918D-03 -0.421084D-03
     16  0.421676D-02  0.601252D-02 -0.178829D-02 -0.436556D-02 -0.583195D-03
     17  0.143073D-01 -0.777380D-02  0.809847D-02 -0.246832D-02  0.493324D-02
     18 -0.269474D-02  0.897550D-03  0.868020D-03  0.199269D-03 -0.621331D-03
                6             7             8             9            10 
      6  0.131555D+00
      7 -0.161404D-01  0.320771D+00
      8  0.182073D-01 -0.970926D-01  0.454641D-01
      9  0.346852D-01 -0.181271D+00  0.690102D-01  0.131560D+00
     10  0.284710D-02  0.640038D-02  0.704941D-02 -0.284735D-02  0.708732D+00
     11 -0.144037D-02  0.919052D-02 -0.531896D-02 -0.143952D-02 -0.660292D-04
     12  0.370924D-02 -0.956985D-03 -0.353342D-02  0.370975D-02 -0.202339D-04
     13 -0.553206D-03 -0.436530D-02  0.585040D-03  0.735940D-03 -0.346053D+00
     14  0.417679D-03  0.247037D-02  0.493313D-02 -0.263520D-02 -0.945859D-01
     15 -0.563571D-03 -0.199356D-03 -0.621338D-03 -0.155095D-02  0.231176D+00
     16 -0.736465D-03  0.223297D-03 -0.808318D-03  0.553228D-03 -0.346011D+00
     17 -0.263486D-02 -0.258873D-02 -0.225041D-03  0.417370D-03  0.946560D-01
     18 -0.155074D-02  0.414834D-03 -0.421278D-03 -0.563657D-03 -0.231155D+00
               11            12            13            14            15 
     11  0.160957D+00
     12 -0.170035D+00  0.374775D+00
     13 -0.781076D-01  0.181198D+00  0.371960D+00
     14 -0.469645D-01  0.794210D-01  0.932797D-01  0.469175D-01
     15  0.854411D-01 -0.184641D+00 -0.208213D+00 -0.793155D-01  0.173760D+00
     16  0.781777D-01 -0.181179D+00 -0.259772D-01  0.105573D-01 -0.250436D-01
     17 -0.470057D-01  0.794644D-01 -0.105503D-01  0.310897D-02 -0.598022D-02
     18  0.854963D-01 -0.184641D+00  0.250417D-01 -0.598608D-02  0.121268D-01
               16            17            18 
     16  0.371913D+00
     17 -0.933560D-01  0.469623D-01
     18  0.208194D+00 -0.793651D-01  0.173761D+00
 Leave Link  716 at Wed Oct 26 16:57:04 2016, MaxMem= 3370123264 cpu:       1.4
 (Enter /opt/qcapps/g09/l103.exe)

 GradGradGradGradGradGradGradGradGradGradGradGradGradGradGradGradGradGrad
 Berny optimization.
 Search for a local minimum.
 Step number   1 out of a maximum of    2
 All quantities printed in internal units (Hartrees-Bohrs-Radians)
 Second derivative matrix not updated -- analytic derivatives used.
 The second derivative matrix:
                          X1        Y1        Z1        X2        Y2
           X1           0.59584
           Y1          -0.00003   0.18230
           Z1           0.00001   0.14708   0.34685
           X2          -0.28742  -0.09648  -0.19816   0.32080
           Y2          -0.08174  -0.05519  -0.08261   0.09705   0.04543
           Z2          -0.16669  -0.08353  -0.16783   0.18128   0.06898
           X3          -0.28739   0.09651   0.19815  -0.03564  -0.00849
           Y3           0.08177  -0.05521  -0.08264   0.00850   0.01036
           Z3           0.16668  -0.08356  -0.16784   0.01614   0.01821
           X4          -0.02947   0.00000   0.00000   0.00640  -0.00705
           Y4           0.00000  -0.05635   0.00198  -0.00919  -0.00531
           Z4           0.00000   0.01822  -0.01291   0.00096  -0.00353
           X5           0.00421  -0.00602   0.00179   0.00022   0.00081
           Y5          -0.01431  -0.00777   0.00810   0.00259  -0.00023
           Z5           0.00270   0.00090   0.00087  -0.00041  -0.00042
           X6           0.00422   0.00601  -0.00179  -0.00437  -0.00058
           Y6           0.01431  -0.00777   0.00810  -0.00247   0.00493
           Z6          -0.00269   0.00090   0.00087   0.00020  -0.00062
                          Z2        X3        Y3        Z3        X4
           Z2           0.13155
           X3          -0.01614   0.32077
           Y3           0.01821  -0.09709   0.04546
           Z3           0.03469  -0.18127   0.06901   0.13156
           X4           0.00285   0.00640   0.00705  -0.00285   0.70873
           Y4          -0.00144   0.00919  -0.00532  -0.00144  -0.00007
           Z4           0.00371  -0.00096  -0.00353   0.00371  -0.00002
           X5          -0.00055  -0.00437   0.00059   0.00074  -0.34605
           Y5           0.00042   0.00247   0.00493  -0.00264  -0.09459
           Z5          -0.00056  -0.00020  -0.00062  -0.00155   0.23118
           X6          -0.00074   0.00022  -0.00081   0.00055  -0.34601
           Y6          -0.00263  -0.00259  -0.00023   0.00042   0.09466
           Z6          -0.00155   0.00041  -0.00042  -0.00056  -0.23116
                          Y4        Z4        X5        Y5        Z5
           Y4           0.16096
           Z4          -0.17003   0.37477
           X5          -0.07811   0.18120   0.37196
           Y5          -0.04696   0.07942   0.09328   0.04692
           Z5           0.08544  -0.18464  -0.20821  -0.07932   0.17376
           X6           0.07818  -0.18118  -0.02598   0.01056  -0.02504
           Y6          -0.04701   0.07946  -0.01055   0.00311  -0.00598
           Z6           0.08550  -0.18464   0.02504  -0.00599   0.01213
                          X6        Y6        Z6
           X6           0.37191
           Y6          -0.09336   0.04696
           Z6           0.20819  -0.07937   0.17376
 ITU=  0
     Eigenvalues ---    0.00214   0.00350   0.00357   0.03745   0.05371
     Eigenvalues ---    0.07790   0.11365   0.18751   0.80569   0.90354
     Eigenvalues ---    0.97727   1.09050
 Angle between quadratic step and forces=  69.96 degrees.
 Linear search not attempted -- first point.
 TrRot= -0.000004 -0.000217 -0.000080 -0.000002 -0.000002 -0.000002
 Variable       Old X    -DE/DX   Delta X   Delta X   Delta X     New X
                                 (Linear)    (Quad)   (Total)
    X1        0.00009   0.00000   0.00000  -0.00003  -0.00003   0.00006
    Y1        0.37646   0.00000   0.00000   0.00011  -0.00010   0.37636
    Z1       -1.06608  -0.00001   0.00000  -0.00032  -0.00040  -1.06648
    X2        2.59375   0.00000   0.00000  -0.00009  -0.00009   2.59366
    Y2        1.18125   0.00000   0.00000  -0.00054  -0.00077   1.18049
    Z2        0.45020   0.00001   0.00000   0.00014   0.00007   0.45026
    X3       -2.59344   0.00000   0.00000   0.00007   0.00007  -2.59337
    Y3        1.18163   0.00000   0.00000  -0.00043  -0.00064   1.18099
    Z3        0.45023   0.00001   0.00000   0.00013   0.00004   0.45028
    X4       -0.00034   0.00000   0.00000   0.00002   0.00001  -0.00033
    Y4       -3.63625  -0.00001   0.00000   0.00011  -0.00011  -3.63636
    Z4       -0.61115   0.00000   0.00000  -0.00010  -0.00018  -0.61133
    X5       -1.47028   0.00000   0.00000   0.00006   0.00003  -1.47025
    Y5       -4.06696   0.00001   0.00000   0.00099   0.00078  -4.06618
    Z5        0.38840  -0.00001   0.00000   0.00032   0.00024   0.38864
    X6        1.46950   0.00000   0.00000   0.00003   0.00001   1.46951
    Y6       -4.06731   0.00001   0.00000   0.00106   0.00084  -4.06647
    Z6        0.38840  -0.00001   0.00000   0.00030   0.00023   0.38863
         Item               Value     Threshold  Converged?
 Maximum Force            0.000011     0.000450     YES
 RMS     Force            0.000005     0.000300     YES
 Maximum Displacement     0.000841     0.001800     YES
 RMS     Displacement     0.000384     0.001200     YES
 Predicted change in Energy=-6.402860D-09
 Optimization completed.
    -- Stationary point found.
 GradGradGradGradGradGradGradGradGradGradGradGradGradGradGradGradGradGrad

 Leave Link  103 at Wed Oct 26 16:57:04 2016, MaxMem= 3370123264 cpu:       0.2
 (Enter /opt/qcapps/g09/l9999.exe)

 Test job not archived.
 1\1\GINC-TITAN10\Freq\RB3PW91\GenECP\H2O3Ti1\OHNISHI\26-Oct-2016\0\\#P
  B3PW91/GenECP SCFCon=7 SCFCyc=250 GFInput GFOldPrint Pseudo=Read Freq
  Integral=(Grid=UltraFine) Pop=Regular IOp(1/33=0,2/11=1,3/27=8,6/7=3)
 \\Frequency\\0,1\Ti,0.000045,0.199214,-0.564146\O,1.372552,0.625093,0.
 238233\O,-1.372388,0.625291,0.238253\O,-0.000179,-1.924223,-0.323407\H
 ,-0.778041,-2.152143,0.205532\H,0.777627,-2.152328,0.205535\\Version=A
 M64L-G09RevC.01\State=1-A\HF=-285.2239839\RMSD=4.132e-08\RMSF=5.107e-0
 6\ZeroPoint=0.0312285\Thermal=0.0370928\Dipole=-0.0002154,-2.143519,-1
 .5259633\DipoleDeriv=2.6354963,-0.0000676,-0.0000273,-0.0000568,1.5984
 199,-0.1648381,-0.0000265,-0.1500129,0.9208835,-1.454574,-0.1468734,-0
 .1043221,-0.2658437,-0.719068,0.0803601,-0.4049433,0.0768437,-0.552905
 7,-1.4545026,0.1469834,0.1043483,0.2659449,-0.719131,0.0803432,0.40496
 86,0.0767832,-0.5529121,-0.3901043,-0.0000603,-0.000001,-0.0000668,-1.
 0052627,-0.0159925,-0.0000021,-0.0527727,-0.3851465,0.3318581,0.073563
 3,-0.0073162,0.0691534,0.4225104,0.0100638,-0.0015952,0.0245781,0.2850
 402,0.3318266,-0.0735454,0.0073182,-0.069131,0.4225314,0.0100635,0.001
 5986,0.0245806,0.2850406\Polar=50.0528109,-0.0011753,31.9729195,-0.000
 1023,1.3546396,28.6976194\PG=C01 [X(H2O3Ti1)]\NImag=0\\0.59584458,-0.0
 0002775,0.18229509,0.00000733,0.14707951,0.34685102,-0.28741911,-0.096
 47915,-0.19816223,0.32080344,-0.08173536,-0.05518644,-0.08261173,0.097
 05283,0.04543469,-0.16669431,-0.08353183,-0.16783486,0.18127731,0.0689
 8210,0.13155476,-0.28738952,0.09651221,0.19815269,-0.03563982,-0.00849
 182,-0.01614043,0.32077096,0.08176779,-0.05521191,-0.08264142,0.008498
 64,0.01035867,0.01820729,-0.09709255,0.04546411,0.16668490,-0.08355812
 ,-0.16784059,0.01614403,0.01820531,0.03468517,-0.18127075,0.06901016,0
 .13156028,-0.02946518,-0.00000271,0.00000023,0.00639717,-0.00705073,0.
 00284710,0.00640038,0.00704941,-0.00284735,0.70873165,-0.00000175,-0.0
 5635332,0.00197703,-0.00919279,-0.00531465,-0.00144037,0.00919052,-0.0
 0531896,-0.00143952,-0.00006603,0.16095706,0.00000183,0.01821583,-0.01
 291157,0.00095653,-0.00353326,0.00370924,-0.00095699,-0.00353342,0.003
 70975,-0.00002023,-0.17003451,0.37477454,0.00421247,-0.00601511,0.0017
 9027,0.00022388,0.00080827,-0.00055321,-0.00436530,0.00058504,0.000735
 94,-0.34605334,-0.07810764,0.18119802,0.37195951,-0.01431025,-0.007769
 61,0.00809814,0.00258880,-0.00022552,0.00041768,0.00247037,0.00493313,
 -0.00263520,-0.09458593,-0.04696447,0.07942100,0.09327973,0.04691750,0
 .00269501,0.00089707,0.00086798,-0.00041492,-0.00042108,-0.00056357,-0
 .00019936,-0.00062134,-0.00155095,0.23117558,0.08544111,-0.18464051,-0
 .20821272,-0.07931554,0.17376026,0.00421676,0.00601252,-0.00178829,-0.
 00436556,-0.00058319,-0.00073646,0.00022330,-0.00080832,0.00055323,-0.
 34601068,0.07817769,-0.18117916,-0.02597722,0.01055728,-0.02504360,0.3
 7191340,0.01430732,-0.00777380,0.00809847,-0.00246832,0.00493324,-0.00
 263486,-0.00258873,-0.00022504,0.00041737,0.09465599,-0.04700566,0.079
 46435,-0.01055030,0.00310897,-0.00598022,-0.09335597,0.04696229,-0.002
 69474,0.00089755,0.00086802,0.00019927,-0.00062133,-0.00155074,0.00041
 483,-0.00042128,-0.00056366,-0.23115533,0.08549626,-0.18464145,0.02504
 169,-0.00598608,0.01212680,0.20819428,-0.07936511,0.17376103\\0.000000
 13,0.00000207,0.00000752,0.00000203,0.00000058,-0.00000668,-0.00000123
 ,-0.00000071,-0.00000699,-0.00000140,0.00001100,-0.00000419,-0.0000036
 9,-0.00000675,0.00000501,0.00000416,-0.00000619,0.00000533\\\@


 Time has a wonderful way of weeding out the trivial.
                                -- Richard Ben Sapir
 Job cpu time:  0 days  0 hours  0 minutes 39.2 seconds.
 File lengths (MBytes):  RWF=     12 Int=      0 D2E=      0 Chk=      2 Scr=      1
 Normal termination of Gaussian 09 at Wed Oct 26 16:57:04 2016.
real 39.77
user 37.40
sys 1.92
