 Running on titan10
 Entering Gaussian System, Link 0=g09
 Initial command:
 /opt/qcapps/g09/l1.exe /work/ohnishi/1477470438/Gau-7693.inp -scrdir=/work/ohnishi/1477470438/
 Entering Link 1 = /opt/qcapps/g09/l1.exe PID=      7694.
  
 Copyright (c) 1988,1990,1992,1993,1995,1998,2003,2009,2011,
            Gaussian, Inc.  All Rights Reserved.
  
 This is part of the Gaussian(R) 09 program.  It is based on
 the Gaussian(R) 03 system (copyright 2003, Gaussian, Inc.),
 the Gaussian(R) 98 system (copyright 1998, Gaussian, Inc.),
 the Gaussian(R) 94 system (copyright 1995, Gaussian, Inc.),
 the Gaussian 92(TM) system (copyright 1992, Gaussian, Inc.),
 the Gaussian 90(TM) system (copyright 1990, Gaussian, Inc.),
 the Gaussian 88(TM) system (copyright 1988, Gaussian, Inc.),
 the Gaussian 86(TM) system (copyright 1986, Carnegie Mellon
 University), and the Gaussian 82(TM) system (copyright 1983,
 Carnegie Mellon University). Gaussian is a federally registered
 trademark of Gaussian, Inc.
  
 This software contains proprietary and confidential information,
 including trade secrets, belonging to Gaussian, Inc.
  
 This software is provided under written license and may be
 used, copied, transmitted, or stored only in accord with that
 written license.
  
 The following legend is applicable only to US Government
 contracts under FAR:
  
                    RESTRICTED RIGHTS LEGEND
  
 Use, reproduction and disclosure by the US Government is
 subject to restrictions as set forth in subparagraphs (a)
 and (c) of the Commercial Computer Software - Restricted
 Rights clause in FAR 52.227-19.
  
 Gaussian, Inc.
 340 Quinnipiac St., Bldg. 40, Wallingford CT 06492
  
  
 ---------------------------------------------------------------
 Warning -- This program may not be used in any manner that
 competes with the business of Gaussian, Inc. or will provide
 assistance to any competitor of Gaussian, Inc.  The licensee
 of this program is prohibited from giving any competitor of
 Gaussian, Inc. access to this program.  By using this program,
 the user acknowledges that Gaussian, Inc. is engaged in the
 business of creating and licensing software in the field of
 computational chemistry and represents and warrants to the
 licensee that it is not a competitor of Gaussian, Inc. and that
 it will not use this program in any manner prohibited above.
 ---------------------------------------------------------------
  

 Cite this work as:
 Gaussian 09, Revision C.01,
 M. J. Frisch, G. W. Trucks, H. B. Schlegel, G. E. Scuseria, 
 M. A. Robb, J. R. Cheeseman, G. Scalmani, V. Barone, B. Mennucci, 
 G. A. Petersson, H. Nakatsuji, M. Caricato, X. Li, H. P. Hratchian, 
 A. F. Izmaylov, J. Bloino, G. Zheng, J. L. Sonnenberg, M. Hada, 
 M. Ehara, K. Toyota, R. Fukuda, J. Hasegawa, M. Ishida, T. Nakajima, 
 Y. Honda, O. Kitao, H. Nakai, T. Vreven, J. A. Montgomery, Jr., 
 J. E. Peralta, F. Ogliaro, M. Bearpark, J. J. Heyd, E. Brothers, 
 K. N. Kudin, V. N. Staroverov, T. Keith, R. Kobayashi, J. Normand, 
 K. Raghavachari, A. Rendell, J. C. Burant, S. S. Iyengar, J. Tomasi, 
 M. Cossi, N. Rega, J. M. Millam, M. Klene, J. E. Knox, J. B. Cross, 
 V. Bakken, C. Adamo, J. Jaramillo, R. Gomperts, R. E. Stratmann, 
 O. Yazyev, A. J. Austin, R. Cammi, C. Pomelli, J. W. Ochterski, 
 R. L. Martin, K. Morokuma, V. G. Zakrzewski, G. A. Voth, 
 P. Salvador, J. J. Dannenberg, S. Dapprich, A. D. Daniels, 
 O. Farkas, J. B. Foresman, J. V. Ortiz, J. Cioslowski, 
 and D. J. Fox, Gaussian, Inc., Wallingford CT, 2010.
 
 ******************************************
 Gaussian 09:  AM64L-G09RevC.01 23-Sep-2011
                26-Oct-2016 
 ******************************************
 %NprocShared=8
 Will use up to    8 processors via shared memory.
 %Mem=25712MB
 %chk=Ti1_TS23_IRC.chk
 ----------------------------------------------------------------------
 #P B3PW91/GenECP SCFCon=7 SCFCyc=250 GFInput GFOldPrint Pseudo=Read IR
 C=(RCFC,MaxPoints=30) Guess=Read Integral=(Grid=UltraFine) Pop=Regular
  IOp(1/33=0,2/11=1,3/27=8,6/7=3)
 ----------------------------------------------------------------------
 1/10=5,14=-1,18=10,26=3,38=1,42=30,44=3/1,23;
 2/11=1,12=2,17=6,18=5,29=1,40=1/2;
 3/5=7,11=2,16=1,17=8,24=11,25=1,27=8,30=1,71=2,74=-6,75=-5,116=-2/1,2,3;
 4/5=1/1;
 5/5=2,6=7,7=250,38=6/2;
 8/6=4,10=90,11=11/1;
 11/6=1,8=1,9=11,15=111,16=1/1,2,10;
 10/6=1/2;
 6/7=3,28=1/1;
 7/10=1,25=1/1,2,3,16;
 1/14=-1,18=10,42=30,44=3/23(3);
 2/11=1,29=1/2;
 7/9=1,25=1,44=-1/16;
 99/5=20/99;
 2/11=1,29=1/2;
 3/5=7,6=1,11=2,16=1,17=8,25=1,27=8,30=1,71=2,74=-6,75=-5,82=7/1,2,3;
 4/5=5,16=3/1;
 5/5=2,6=7,7=250,38=5/2;
 8/6=4,10=90,11=11/1;
 11/6=1,8=1,9=11,15=111,16=1/1,2,10;
 10/6=1/2;
 7/10=1,25=1/1,2,3,16;
 1/14=-1,18=10,42=30,44=3/23(-8);
 2/11=1,29=1/2;
 6/7=3,19=2,28=1/1;
 7/9=1,25=1,44=-1/16;
 99/5=20,9=1/99;
 Leave Link    1 at Wed Oct 26 17:27:18 2016, MaxMem= 3370123264 cpu:       0.6
 (Enter /opt/qcapps/g09/l101.exe)
 ---------
 Frequency
 ---------
 Charge =  0 Multiplicity = 1
 Symbolic Z-Matrix:
 Ti                    0.56854   0.2336   -0.4175 
 O                     0.33492  -1.15937   0.54444 
 O                     1.4384    1.39563   0.30753 
 O                    -1.45792   0.1652   -0.25038 
 H                    -1.95176   0.73858   0.34679 
 H                    -0.90773  -0.69954   0.31372 
 
 NAtoms=      6 NQM=        0 NQMF=       0 NMMI=      6 NMMIF=      0
                NMic=       0 NMicF=      0.
                    Isotopes and Nuclear Properties:
 (Nuclear quadrupole moments (NQMom) in fm**2, nuclear magnetic moments (NMagM)
  in nuclear magnetons)

  Atom         1           2           3           4           5           6
 IAtWgt=          48          16          16          16           1           1
 AtmWgt=  47.9479467  15.9949146  15.9949146  15.9949146   1.0078250   1.0078250
 NucSpn=           0           0           0           0           1           1
 AtZEff=   0.0000000   0.0000000   0.0000000   0.0000000   0.0000000   0.0000000
 NQMom=    0.0000000   0.0000000   0.0000000   0.0000000   0.0000000   0.0000000
 NMagM=    0.0000000   0.0000000   0.0000000   0.0000000   2.7928460   2.7928460
 Leave Link  101 at Wed Oct 26 17:27:19 2016, MaxMem= 3370123264 cpu:       0.8
 (Enter /opt/qcapps/g09/l123.exe)
 IRC-IRC-IRC-IRC-IRC-IRC-IRC-IRC-IRC-IRC-IRC-IRC-IRC-IRC-IRC-IRC-IRC-IRC
 ------------------------------------------------------------------------
 INPUT DATA FOR L123
 ------------------------------------------------------------------------
 GENERAL PARAMETERS:
 Follow reaction path in both directions.
 Maximum points per path      =  30
 Step size                    =   0.100 bohr
 Integration scheme           = HPC                                 
    Redo corrector integration= Yes                                 
    DWI Weight Power          =  2
    DWI will use Hessian update vectors when possible.
    Max correction cycles     =  20
 Initial Hessian              = ReadFC from chk
 Hessian eveluation           = All updating
    Hessian updating method   = Bofill                              
 ------------------------------------------------------------------------
          ******** Start new reaction path calculation ********
 RCFC Option Requested - Data Read From Chk File:
 Ti1_TS23_IRC.chk
   Energy From Chk =   -285.2132852

 Current Structure is TS -> form Hessian eigenvectors.
                            Diagonalizing Hessian.
 Supplied step size of   0.1000 bohr.
    Integration on MW PES will use step size of   0.1059 sqrt(amu)*bohr.
 Point Number:   0          Path Number:   1
 Calculating another point on the path.
 Point Number  1 in FORWARD path direction.
 Using LQA Reaction Path Following.
 IRC-IRC-IRC-IRC-IRC-IRC-IRC-IRC-IRC-IRC-IRC-IRC-IRC-IRC-IRC-IRC-IRC-IRC
 Leave Link  123 at Wed Oct 26 17:27:19 2016, MaxMem= 3370123264 cpu:       0.4
 (Enter /opt/qcapps/g09/l202.exe)
                          Input orientation:                          
 ---------------------------------------------------------------------
 Center     Atomic      Atomic             Coordinates (Angstroms)
 Number     Number       Type             X           Y           Z
 ---------------------------------------------------------------------
      1         22           0        0.268864    0.052298   -0.317869
      2          8           0        0.037227   -1.338321    0.642637
      3          8           0        1.138077    1.215850    0.407231
      4          8           0       -1.760432   -0.015683   -0.150399
      5          1           0       -2.253814    0.557064    0.447870
      6          1           0       -1.251169   -0.852558    0.399732
 ---------------------------------------------------------------------
                    Distance matrix (angstroms):
                    1          2          3          4          5
     1  Ti   0.000000
     2  O    1.705886   0.000000
     3  O    1.623317   2.791251   0.000000
     4  O    2.037330   2.368514   3.198278   0.000000
     5  H    2.684222   2.979814   3.455514   0.964049   0.000000
     6  H    1.908983   1.398189   3.160200   1.123545   1.730506
                    6
     6  H    0.000000
 Symmetry turned off by external request.
 Stoichiometry    H2O3Ti
 Framework group  C1[X(H2O3Ti)]
 Deg. of freedom    12
 Full point group                 C1      NOp   1
 Rotational constants (GHZ):      9.0736543      4.8104579      3.6944811
 Leave Link  202 at Wed Oct 26 17:27:19 2016, MaxMem= 3370123264 cpu:       0.0
 (Enter /opt/qcapps/g09/l301.exe)
 General basis read from cards:  (5D, 7F)
 Centers:   1
 SDDAll
 ****
 Centers:   2  3  4  5  6
 6-31G(d,p)
 ****
 ======================================================================================================
                                       Pseudopotential Parameters
 ======================================================================================================
  Center     Atomic      Valence      Angular      Power
  Number     Number     Electrons     Momentum     of R      Exponent        Coefficient   SO-Coeffient
 ======================================================================================================
    1         22           12
                                      F and up 
                                                     2        1.0000000        0.00000000    0.00000000
                                      S - F
                                                     2       13.0100000      158.24159300    0.00000000
                                                     2        5.8620000       17.51182400    0.00000000
                                      P - F
                                                     2       12.4600000       95.23512700    0.00000000
                                                     2        5.2170000       10.04785600    0.00000000
                                      D - F
                                                     2       15.3500000      -17.56886100    0.00000000
                                                     2        4.9800000       -0.58725600    0.00000000
    2          8
                                   No pseudopotential on this center.
    3          8
                                   No pseudopotential on this center.
    4          8
                                   No pseudopotential on this center.
    5          1
                                   No pseudopotential on this center.
    6          1
                                   No pseudopotential on this center.
 ======================================================================================================
 Ernie: Thresh=  0.10000D-02 Tol=  0.10000D-05 Strict=F.
 AO basis set in the form of general basis input (Overlap normalization):
      1 0
 S   3 1.00       0.000000000000
      0.1078036500D+02  0.1783892477D+01
      0.9717013000D+01 -0.2000689535D+01
      0.4507755000D+01 -0.7563332022D+00
 S   1 1.00       0.000000000000
      0.1246708000D+01  0.1000000000D+01
 S   1 1.00       0.000000000000
      0.5087070000D+00  0.1000000000D+01
 S   1 1.00       0.000000000000
      0.7343800000D-01  0.1000000000D+01
 S   1 1.00       0.000000000000
      0.3004800000D-01  0.1000000000D+01
 S   1 1.00       0.000000000000
      0.1000000000D-01  0.1000000000D+01
 P   2 1.00       0.000000000000
      0.1756638100D+02  0.8860101480D-01
      0.7705844000D+01 -0.1070746179D+01
 P   2 1.00       0.000000000000
      0.3329138000D+01  0.2001088977D+00
      0.1308104000D+01  0.8379855716D+00
 P   1 1.00       0.000000000000
      0.4544820000D+00  0.1000000000D+01
 P   1 1.00       0.000000000000
      0.7177200000D-01  0.1000000000D+01
 P   1 1.00       0.000000000000
      0.2378400000D-01  0.1000000000D+01
 D   4 1.00       0.000000000000
      0.1951919400D+02  0.3581400317D-01
      0.5864613000D+01  0.1723730152D+00
      0.1928038000D+01  0.4251360376D+00
      0.6065630000D+00  0.6025950533D+00
 D   1 1.00       0.000000000000
      0.1639610000D+00  0.1000000000D+01
 D   1 1.00       0.000000000000
      0.5000000000D-01  0.1000000000D+01
 F   1 1.00       0.000000000000
      0.5000000000D+00  0.1000000000D+01
 ****
      2 0
 S   6 1.00       0.000000000000
      0.5484671660D+04  0.1831074430D-02
      0.8252349460D+03  0.1395017220D-01
      0.1880469580D+03  0.6844507810D-01
      0.5296450000D+02  0.2327143360D+00
      0.1689757040D+02  0.4701928980D+00
      0.5799635340D+01  0.3585208530D+00
 SP   3 1.00       0.000000000000
      0.1553961625D+02 -0.1107775495D+00  0.7087426823D-01
      0.3599933586D+01 -0.1480262627D+00  0.3397528391D+00
      0.1013761750D+01  0.1130767015D+01  0.7271585773D+00
 SP   1 1.00       0.000000000000
      0.2700058226D+00  0.1000000000D+01  0.1000000000D+01
 D   1 1.00       0.000000000000
      0.8000000000D+00  0.1000000000D+01
 ****
      3 0
 S   6 1.00       0.000000000000
      0.5484671660D+04  0.1831074430D-02
      0.8252349460D+03  0.1395017220D-01
      0.1880469580D+03  0.6844507810D-01
      0.5296450000D+02  0.2327143360D+00
      0.1689757040D+02  0.4701928980D+00
      0.5799635340D+01  0.3585208530D+00
 SP   3 1.00       0.000000000000
      0.1553961625D+02 -0.1107775495D+00  0.7087426823D-01
      0.3599933586D+01 -0.1480262627D+00  0.3397528391D+00
      0.1013761750D+01  0.1130767015D+01  0.7271585773D+00
 SP   1 1.00       0.000000000000
      0.2700058226D+00  0.1000000000D+01  0.1000000000D+01
 D   1 1.00       0.000000000000
      0.8000000000D+00  0.1000000000D+01
 ****
      4 0
 S   6 1.00       0.000000000000
      0.5484671660D+04  0.1831074430D-02
      0.8252349460D+03  0.1395017220D-01
      0.1880469580D+03  0.6844507810D-01
      0.5296450000D+02  0.2327143360D+00
      0.1689757040D+02  0.4701928980D+00
      0.5799635340D+01  0.3585208530D+00
 SP   3 1.00       0.000000000000
      0.1553961625D+02 -0.1107775495D+00  0.7087426823D-01
      0.3599933586D+01 -0.1480262627D+00  0.3397528391D+00
      0.1013761750D+01  0.1130767015D+01  0.7271585773D+00
 SP   1 1.00       0.000000000000
      0.2700058226D+00  0.1000000000D+01  0.1000000000D+01
 D   1 1.00       0.000000000000
      0.8000000000D+00  0.1000000000D+01
 ****
      5 0
 S   3 1.00       0.000000000000
      0.1873113696D+02  0.3349460434D-01
      0.2825394365D+01  0.2347269535D+00
      0.6401216923D+00  0.8137573261D+00
 S   1 1.00       0.000000000000
      0.1612777588D+00  0.1000000000D+01
 P   1 1.00       0.000000000000
      0.1100000000D+01  0.1000000000D+01
 ****
      6 0
 S   3 1.00       0.000000000000
      0.1873113696D+02  0.3349460434D-01
      0.2825394365D+01  0.2347269535D+00
      0.6401216923D+00  0.8137573261D+00
 S   1 1.00       0.000000000000
      0.1612777588D+00  0.1000000000D+01
 P   1 1.00       0.000000000000
      0.1100000000D+01  0.1000000000D+01
 ****

 ***********************************************************************************************************************************
 *             ATOMIC CENTER             *        ATOMIC ORBITAL       *                     GAUSSIAN FUNCTIONS                    *
 ***********************************************************************************************************************************
 *                                       * FUNCTION    SHELL    SCALE  *                                                           *
 *    ATOM   X-COORD  Y-COORD  Z-COORD   *  NUMBER     TYPE     FACTOR *  EXPONENT    S-COEF      P-COEF      D-COEF      F-COEF   *
 ***********************************************************************************************************************************
 *     Ti     0.50808  0.09883 -0.60069                                                                                            *
+                                                1   S           1.00                                                               
+                                                                      0.107804D+020.756404D+010.000000D+000.000000D+000.000000D+00 
 *                                                                     0.971701D+01-.784765D+010.000000D+000.000000D+000.000000D+00*
 *                                                                     0.450776D+01-.166761D+010.000000D+000.000000D+000.000000D+00*
 *                                               2   S           1.00                                                              *
+                                                                      0.124671D+010.840879D+000.000000D+000.000000D+000.000000D+00 
 *                                               3   S           1.00                                                              *
+                                                                      0.508707D+000.429300D+000.000000D+000.000000D+000.000000D+00 
 *                                               4   S           1.00                                                              *
+                                                                      0.734380D-010.100543D+000.000000D+000.000000D+000.000000D+00 
 *                                               5   S           1.00                                                              *
+                                                                      0.300480D-010.514365D-010.000000D+000.000000D+000.000000D+00 
 *                                               6   S           1.00                                                              *
+                                                                      0.100000D-010.225377D-010.000000D+000.000000D+000.000000D+00 
 *                                           7-  9   P           1.00                                                              *
+                                                                      0.175664D+020.000000D+000.454184D+010.000000D+000.000000D+00 
 *                                                                     0.770584D+010.000000D+00-.195953D+020.000000D+000.000000D+00*
 *                                          10- 12   P           1.00                                                              *
+                                                                      0.332914D+010.000000D+000.128269D+010.000000D+000.000000D+00 
 *                                                                     0.130810D+010.000000D+000.167101D+010.000000D+000.000000D+00*
 *                                          13- 15   P           1.00                                                              *
+                                                                      0.454482D+000.000000D+000.531907D+000.000000D+000.000000D+00 
 *                                          16- 18   P           1.00                                                              *
+                                                                      0.717720D-010.000000D+000.529522D-010.000000D+000.000000D+00 
 *                                          19- 21   P           1.00                                                              *
+                                                                      0.237840D-010.000000D+000.133136D-010.000000D+000.000000D+00 
 *                                          22- 26   D           1.00                                                              *
+                                                                      0.195192D+020.000000D+000.000000D+000.106849D+020.000000D+00 
 *                                                                     0.586461D+010.000000D+000.000000D+000.627043D+010.000000D+00*
 *                                                                     0.192804D+010.000000D+000.000000D+000.220744D+010.000000D+00*
 *                                                                     0.606563D+000.000000D+000.000000D+000.413493D+000.000000D+00*
 *                                          27- 31   D           1.00                                                              *
+                                                                      0.163961D+000.000000D+000.000000D+000.695353D-010.000000D+00 
 *                                          32- 36   D           1.00                                                              *
+                                                                      0.500000D-010.000000D+000.000000D+000.870176D-020.000000D+00 
 *                                          31- 43   F           1.00                                                              *
+                                                                      0.500000D+000.000000D+000.000000D+000.000000D+000.309483D+00 
 *---------------------------------------------------------------------------------------------------------------------------------*
 *     O      0.07035 -2.52906  1.21441                                                                                            *
+                                               44   S           1.00                                                               
+                                                                      0.548467D+040.831724D+000.000000D+000.000000D+000.000000D+00 
 *                                                                     0.825235D+030.153082D+010.000000D+000.000000D+000.000000D+00*
 *                                                                     0.188047D+030.247715D+010.000000D+000.000000D+000.000000D+00*
 *                                                                     0.529645D+020.325628D+010.000000D+000.000000D+000.000000D+00*
 *                                                                     0.168976D+020.279289D+010.000000D+000.000000D+000.000000D+00*
 *                                                                     0.579964D+010.954938D+000.000000D+000.000000D+000.000000D+00*
 *                                          45- 48   SP          1.00                                                              *
+                                                                      0.155396D+02-.617934D+000.311694D+010.000000D+000.000000D+00 
 *                                                                     0.359993D+01-.275721D+000.240144D+010.000000D+000.000000D+00*
 *                                                                     0.101376D+010.814208D+000.105436D+010.000000D+000.000000D+00*
 *                                          49- 52   SP          1.00                                                              *
+                                                                      0.270006D+000.266956D+000.277432D+000.000000D+000.000000D+00 
 *                                          53- 57   D           1.00                                                              *
+                                                                      0.800000D+000.000000D+000.000000D+000.111382D+010.000000D+00 
 *---------------------------------------------------------------------------------------------------------------------------------*
 *     O      2.15065  2.29762  0.76956                                                                                            *
+                                               58   S           1.00                                                               
+                                                                      0.548467D+040.831724D+000.000000D+000.000000D+000.000000D+00 
 *                                                                     0.825235D+030.153082D+010.000000D+000.000000D+000.000000D+00*
 *                                                                     0.188047D+030.247715D+010.000000D+000.000000D+000.000000D+00*
 *                                                                     0.529645D+020.325628D+010.000000D+000.000000D+000.000000D+00*
 *                                                                     0.168976D+020.279289D+010.000000D+000.000000D+000.000000D+00*
 *                                                                     0.579964D+010.954938D+000.000000D+000.000000D+000.000000D+00*
 *                                          59- 62   SP          1.00                                                              *
+                                                                      0.155396D+02-.617934D+000.311694D+010.000000D+000.000000D+00 
 *                                                                     0.359993D+01-.275721D+000.240144D+010.000000D+000.000000D+00*
 *                                                                     0.101376D+010.814208D+000.105436D+010.000000D+000.000000D+00*
 *                                          63- 66   SP          1.00                                                              *
+                                                                      0.270006D+000.266956D+000.277432D+000.000000D+000.000000D+00 
 *                                          67- 71   D           1.00                                                              *
+                                                                      0.800000D+000.000000D+000.000000D+000.111382D+010.000000D+00 
 *---------------------------------------------------------------------------------------------------------------------------------*
 *     O     -3.32674 -0.02964 -0.28421                                                                                            *
+                                               72   S           1.00                                                               
+                                                                      0.548467D+040.831724D+000.000000D+000.000000D+000.000000D+00 
 *                                                                     0.825235D+030.153082D+010.000000D+000.000000D+000.000000D+00*
 *                                                                     0.188047D+030.247715D+010.000000D+000.000000D+000.000000D+00*
 *                                                                     0.529645D+020.325628D+010.000000D+000.000000D+000.000000D+00*
 *                                                                     0.168976D+020.279289D+010.000000D+000.000000D+000.000000D+00*
 *                                                                     0.579964D+010.954938D+000.000000D+000.000000D+000.000000D+00*
 *                                          73- 76   SP          1.00                                                              *
+                                                                      0.155396D+02-.617934D+000.311694D+010.000000D+000.000000D+00 
 *                                                                     0.359993D+01-.275721D+000.240144D+010.000000D+000.000000D+00*
 *                                                                     0.101376D+010.814208D+000.105436D+010.000000D+000.000000D+00*
 *                                          77- 80   SP          1.00                                                              *
+                                                                      0.270006D+000.266956D+000.277432D+000.000000D+000.000000D+00 
 *                                          81- 85   D           1.00                                                              *
+                                                                      0.800000D+000.000000D+000.000000D+000.111382D+010.000000D+00 
 *---------------------------------------------------------------------------------------------------------------------------------*
 *     H     -4.25909  1.05270  0.84635                                                                                            *
+                                               86   S           1.00                                                               
+                                                                      0.187311D+020.214935D+000.000000D+000.000000D+000.000000D+00 
 *                                                                     0.282539D+010.364571D+000.000000D+000.000000D+000.000000D+00*
 *                                                                     0.640122D+000.415051D+000.000000D+000.000000D+000.000000D+00*
 *                                              87   S           1.00                                                              *
+                                                                      0.161278D+000.181381D+000.000000D+000.000000D+000.000000D+00 
 *                                          88- 90   P           1.00                                                              *
+                                                                      0.110000D+010.000000D+000.160576D+010.000000D+000.000000D+00 
 *---------------------------------------------------------------------------------------------------------------------------------*
 *     H     -2.36437 -1.61110  0.75538                                                                                            *
+                                               91   S           1.00                                                               
+                                                                      0.187311D+020.214935D+000.000000D+000.000000D+000.000000D+00 
 *                                                                     0.282539D+010.364571D+000.000000D+000.000000D+000.000000D+00*
 *                                                                     0.640122D+000.415051D+000.000000D+000.000000D+000.000000D+00*
 *                                              92   S           1.00                                                              *
+                                                                      0.161278D+000.181381D+000.000000D+000.000000D+000.000000D+00 
 *                                          93- 95   P           1.00                                                              *
+                                                                      0.110000D+010.000000D+000.160576D+010.000000D+000.000000D+00 
 ***********************************************************************************************************************************
 Integral buffers will be    131072 words long.
 Raffenetti 2 integral format.
 Two-electron integral symmetry is turned off.
    95 basis functions,   173 primitive gaussians,   104 cartesian basis functions
    19 alpha electrons       19 beta electrons
       nuclear repulsion energy       144.2015020118 Hartrees.
 IExCor=  408 DFT=T Ex+Corr=B3PW91 ExCW=0 ScaHFX=  0.200000
 ScaDFX=  0.800000  0.720000  1.000000  0.810000 ScalE2=  1.000000  1.000000
 IRadAn=      5 IRanWt=     -1 IRanGd=            0 ICorTp=0
 NAtoms=    6 NActive=    6 NUniq=    6 SFac= 1.00D+00 NAtFMM=   60 NAOKFM=F Big=F
 Leave Link  301 at Wed Oct 26 17:27:19 2016, MaxMem= 3370123264 cpu:       0.6
 (Enter /opt/qcapps/g09/l302.exe)
 NPDir=0 NMtPBC=     1 NCelOv=     1 NCel=       1 NClECP=     1 NCelD=      1
         NCelK=      1 NCelE2=     1 NClLst=     1 CellRange=     0.0.
 One-electron integrals computed using PRISM.
   1 Symmetry operations used in ECPInt.
 ECPInt:  NShTT=     561 NPrTT=    2216 LenC2=     560 LenP2D=    1858.
 LDataN:  DoStor=T MaxTD1= 6 Len=  172
 NBasis=    95 RedAO= T  NBF=    95
 NBsUse=    95 1.00D-06 NBFU=    95
 Precomputing XC quadrature grid using
 IXCGrd= 2 IRadAn=           5 IRanWt=          -1 IRanGd=           0 AccXCQ= 0.00D+00.
 NRdTot=     520 NPtTot=      149344 NUsed=      153075 NTot=      153107
 NSgBfM=   104   104   104   104   104 NAtAll=     6     6.
 Leave Link  302 at Wed Oct 26 17:27:19 2016, MaxMem= 3370123264 cpu:       1.9
 (Enter /opt/qcapps/g09/l303.exe)
 DipDrv:  MaxL=1.
 Leave Link  303 at Wed Oct 26 17:27:19 2016, MaxMem= 3370123264 cpu:       0.3
 (Enter /opt/qcapps/g09/l401.exe)
 Initial guess read from the checkpoint file:  Ti1_TS23_IRC.chk
 B after Tr=    -0.089408   -0.009849    0.041347
         Rot=    0.229816   -0.041066    0.127829    0.963928 Ang= 153.43 deg.
 Guess basis will be translated and rotated to current coordinates.
 Leave Link  401 at Wed Oct 26 17:27:20 2016, MaxMem= 3370123264 cpu:       1.3
 (Enter /opt/qcapps/g09/l502.exe)
 Closed shell SCF:
 Requested convergence on RMS density matrix=1.00D-07 within 250 cycles.
 Requested convergence on MAX density matrix=1.00D-05.
 Requested convergence on             energy=1.00D-05.
 No special actions if energy rises.
 Using DIIS extrapolation, IDIIS=  1040.
 Two-electron integral symmetry not used.
       153008 words used for storage of precomputed grid.
 Keep R1 ints in memory in canonical form, NReq=17100340.
 IEnd=      251796 IEndB=      251796 NGot=  3370123264 MDV=  3355036831
 LenX=  3355036831 LenY=  3355025574
 Symmetry not used in FoFDir.
 MinBra= 0 MaxBra= 3 Meth= 1.
 IRaf=       0 NMat=   1 IRICut=       1 DoRegI=T DoRafI=F ISym2E= 0 JSym2E=0.

 Cycle   1  Pass 1  IDiag  1:
 E= -285.212236151395    
 DIIS: error= 2.33D-03 at cycle   1 NSaved=   1.
 NSaved= 1 IEnMin= 1 EnMin= -285.212236151395     IErMin= 1 ErrMin= 2.33D-03
 ErrMax= 2.33D-03 EMaxC= 1.00D-01 BMatC= 8.68D-04 BMatP= 8.68D-04
 IDIUse=3 WtCom= 9.77D-01 WtEn= 2.33D-02
 Coeff-Com:  0.100D+01
 Coeff-En:   0.100D+01
 Coeff:      0.100D+01
 Gap=     0.172 Goal=   None    Shift=    0.000
 GapD=    0.172 DampG=1.000 DampE=1.000 DampFc=1.0000 IDamp=-1.
 RMSDP=5.09D-04 MaxDP=1.07D-02              OVMax= 1.93D-02

 Cycle   2  Pass 1  IDiag  1:
 E= -285.212910288407     Delta-E=       -0.000674137012 Rises=F Damp=F
 DIIS: error= 1.57D-03 at cycle   2 NSaved=   2.
 NSaved= 2 IEnMin= 2 EnMin= -285.212910288407     IErMin= 2 ErrMin= 1.57D-03
 ErrMax= 1.57D-03 EMaxC= 1.00D-01 BMatC= 8.19D-04 BMatP= 8.68D-04
 IDIUse=3 WtCom= 9.84D-01 WtEn= 1.57D-02
 Coeff-Com:  0.488D+00 0.512D+00
 Coeff-En:   0.364D-01 0.964D+00
 Coeff:      0.481D+00 0.519D+00
 Gap=     0.179 Goal=   None    Shift=    0.000
 RMSDP=3.80D-04 MaxDP=9.85D-03 DE=-6.74D-04 OVMax= 1.40D-02

 Cycle   3  Pass 1  IDiag  1:
 E= -285.212646483067     Delta-E=        0.000263805340 Rises=F Damp=F
 DIIS: error= 1.73D-03 at cycle   3 NSaved=   3.
 NSaved= 3 IEnMin= 2 EnMin= -285.212910288407     IErMin= 2 ErrMin= 1.57D-03
 ErrMax= 1.73D-03 EMaxC= 1.00D-01 BMatC= 1.13D-03 BMatP= 8.19D-04
 IDIUse=3 WtCom= 1.94D-01 WtEn= 8.06D-01
 Coeff-Com:  0.310D-01 0.529D+00 0.440D+00
 Coeff-En:   0.000D+00 0.559D+00 0.441D+00
 Coeff:      0.601D-02 0.554D+00 0.440D+00
 Gap=     0.174 Goal=   None    Shift=    0.000
 RMSDP=2.35D-04 MaxDP=5.92D-03 DE= 2.64D-04 OVMax= 9.86D-03

 Cycle   4  Pass 1  IDiag  1:
 E= -285.213416892209     Delta-E=       -0.000770409142 Rises=F Damp=F
 DIIS: error= 9.25D-04 at cycle   4 NSaved=   4.
 NSaved= 4 IEnMin= 4 EnMin= -285.213416892209     IErMin= 4 ErrMin= 9.25D-04
 ErrMax= 9.25D-04 EMaxC= 1.00D-01 BMatC= 1.70D-04 BMatP= 8.19D-04
 IDIUse=3 WtCom= 9.91D-01 WtEn= 9.25D-03
 EnCoef did     6 forward-backward iterations
 Coeff-Com: -0.234D-01 0.379D+00 0.342D+00 0.303D+00
 Coeff-En:   0.000D+00 0.128D+00 0.136D+00 0.736D+00
 Coeff:     -0.231D-01 0.376D+00 0.340D+00 0.307D+00
 Gap=     0.175 Goal=   None    Shift=    0.000
 RMSDP=9.28D-05 MaxDP=1.89D-03 DE=-7.70D-04 OVMax= 3.72D-03

 Cycle   5  Pass 1  IDiag  1:
 E= -285.213522443681     Delta-E=       -0.000105551473 Rises=F Damp=F
 DIIS: error= 3.28D-04 at cycle   5 NSaved=   5.
 NSaved= 5 IEnMin= 5 EnMin= -285.213522443681     IErMin= 5 ErrMin= 3.28D-04
 ErrMax= 3.28D-04 EMaxC= 1.00D-01 BMatC= 2.36D-05 BMatP= 1.70D-04
 IDIUse=3 WtCom= 9.97D-01 WtEn= 3.28D-03
 Coeff-Com: -0.232D-01 0.232D+00 0.221D+00 0.249D+00 0.322D+00
 Coeff-En:   0.000D+00 0.000D+00 0.000D+00 0.147D+00 0.853D+00
 Coeff:     -0.231D-01 0.231D+00 0.220D+00 0.249D+00 0.324D+00
 Gap=     0.175 Goal=   None    Shift=    0.000
 RMSDP=3.50D-05 MaxDP=8.55D-04 DE=-1.06D-04 OVMax= 1.44D-03

 Cycle   6  Pass 1  IDiag  1:
 E= -285.213540128393     Delta-E=       -0.000017684712 Rises=F Damp=F
 DIIS: error= 6.60D-05 at cycle   6 NSaved=   6.
 NSaved= 6 IEnMin= 6 EnMin= -285.213540128393     IErMin= 6 ErrMin= 6.60D-05
 ErrMax= 6.60D-05 EMaxC= 1.00D-01 BMatC= 1.25D-06 BMatP= 2.36D-05
 IDIUse=1 WtCom= 1.00D+00 WtEn= 0.00D+00
 Coeff-Com: -0.704D-02 0.411D-01 0.519D-01 0.737D-01 0.210D+00 0.630D+00
 Coeff:     -0.704D-02 0.411D-01 0.519D-01 0.737D-01 0.210D+00 0.630D+00
 Gap=     0.175 Goal=   None    Shift=    0.000
 RMSDP=8.70D-06 MaxDP=1.58D-04 DE=-1.77D-05 OVMax= 2.66D-04

 Cycle   7  Pass 1  IDiag  1:
 E= -285.213541146473     Delta-E=       -0.000001018080 Rises=F Damp=F
 DIIS: error= 6.97D-06 at cycle   7 NSaved=   7.
 NSaved= 7 IEnMin= 7 EnMin= -285.213541146473     IErMin= 7 ErrMin= 6.97D-06
 ErrMax= 6.97D-06 EMaxC= 1.00D-01 BMatC= 1.56D-08 BMatP= 1.25D-06
 IDIUse=1 WtCom= 1.00D+00 WtEn= 0.00D+00
 Coeff-Com: -0.435D-04-0.711D-02-0.228D-02-0.309D-02 0.145D-01 0.830D-01
 Coeff-Com:  0.915D+00
 Coeff:     -0.435D-04-0.711D-02-0.228D-02-0.309D-02 0.145D-01 0.830D-01
 Coeff:      0.915D+00
 Gap=     0.175 Goal=   None    Shift=    0.000
 RMSDP=1.86D-06 MaxDP=2.87D-05 DE=-1.02D-06 OVMax= 6.42D-05

 Cycle   8  Pass 1  IDiag  1:
 E= -285.213541165630     Delta-E=       -0.000000019158 Rises=F Damp=F
 DIIS: error= 1.88D-06 at cycle   8 NSaved=   8.
 NSaved= 8 IEnMin= 8 EnMin= -285.213541165630     IErMin= 8 ErrMin= 1.88D-06
 ErrMax= 1.88D-06 EMaxC= 1.00D-01 BMatC= 1.71D-09 BMatP= 1.56D-08
 IDIUse=1 WtCom= 1.00D+00 WtEn= 0.00D+00
 Coeff-Com:  0.450D-03-0.542D-02-0.416D-02-0.584D-02-0.814D-02-0.532D-02
 Coeff-Com:  0.373D+00 0.655D+00
 Coeff:      0.450D-03-0.542D-02-0.416D-02-0.584D-02-0.814D-02-0.532D-02
 Coeff:      0.373D+00 0.655D+00
 Gap=     0.175 Goal=   None    Shift=    0.000
 RMSDP=5.08D-07 MaxDP=9.02D-06 DE=-1.92D-08 OVMax= 2.10D-05

 Cycle   9  Pass 1  IDiag  1:
 E= -285.213541167403     Delta-E=       -0.000000001772 Rises=F Damp=F
 DIIS: error= 4.22D-07 at cycle   9 NSaved=   9.
 NSaved= 9 IEnMin= 9 EnMin= -285.213541167403     IErMin= 9 ErrMin= 4.22D-07
 ErrMax= 4.22D-07 EMaxC= 1.00D-01 BMatC= 7.33D-11 BMatP= 1.71D-09
 IDIUse=1 WtCom= 1.00D+00 WtEn= 0.00D+00
 Coeff-Com:  0.868D-04-0.589D-03-0.772D-03-0.105D-02-0.319D-02-0.677D-02
 Coeff-Com:  0.144D-01 0.142D+00 0.856D+00
 Coeff:      0.868D-04-0.589D-03-0.772D-03-0.105D-02-0.319D-02-0.677D-02
 Coeff:      0.144D-01 0.142D+00 0.856D+00
 Gap=     0.175 Goal=   None    Shift=    0.000
 RMSDP=1.53D-07 MaxDP=3.03D-06 DE=-1.77D-09 OVMax= 6.70D-06

 Cycle  10  Pass 1  IDiag  1:
 E= -285.213541167517     Delta-E=       -0.000000000114 Rises=F Damp=F
 DIIS: error= 1.72D-07 at cycle  10 NSaved=  10.
 NSaved=10 IEnMin=10 EnMin= -285.213541167517     IErMin=10 ErrMin= 1.72D-07
 ErrMax= 1.72D-07 EMaxC= 1.00D-01 BMatC= 1.11D-11 BMatP= 7.33D-11
 IDIUse=1 WtCom= 1.00D+00 WtEn= 0.00D+00
 Coeff-Com: -0.106D-04 0.342D-03 0.117D-03 0.221D-03-0.344D-03-0.230D-02
 Coeff-Com: -0.317D-01-0.116D-01 0.331D+00 0.714D+00
 Coeff:     -0.106D-04 0.342D-03 0.117D-03 0.221D-03-0.344D-03-0.230D-02
 Coeff:     -0.317D-01-0.116D-01 0.331D+00 0.714D+00
 Gap=     0.175 Goal=   None    Shift=    0.000
 RMSDP=4.44D-08 MaxDP=8.49D-07 DE=-1.14D-10 OVMax= 2.37D-06

 SCF Done:  E(RB3PW91) =  -285.213541168     A.U. after   10 cycles
             Convg  =    0.4445D-07             -V/T =  2.1366
 KE= 2.509318196053D+02 PE=-9.492366754396D+02 EE= 2.688898126550D+02
 Leave Link  502 at Wed Oct 26 17:27:24 2016, MaxMem= 3370123264 cpu:      33.8
 (Enter /opt/qcapps/g09/l801.exe)
 Range of M.O.s used for correlation:     1    95
 NBasis=    95 NAE=    19 NBE=    19 NFC=     0 NFV=     0
 NROrb=     95 NOA=    19 NOB=    19 NVA=    76 NVB=    76
 Leave Link  801 at Wed Oct 26 17:27:24 2016, MaxMem= 3370123264 cpu:       0.3
 (Enter /opt/qcapps/g09/l1101.exe)
 Leave Link 1101 at Wed Oct 26 17:27:24 2016, MaxMem= 3370123264 cpu:       0.3
 (Enter /opt/qcapps/g09/l1102.exe)
 Symmetrizing basis deriv contribution to polar:
 IMax=3 JMax=2 DiffMx= 0.00D+00
 Leave Link 1102 at Wed Oct 26 17:27:24 2016, MaxMem= 3370123264 cpu:       0.3
 (Enter /opt/qcapps/g09/l1110.exe)
 Leave Link 1110 at Wed Oct 26 17:27:24 2016, MaxMem= 3370123264 cpu:       0.3
 (Enter /opt/qcapps/g09/l1002.exe)
 Minotr:  Closed shell wavefunction.
 Leave Link 1002 at Wed Oct 26 17:27:24 2016, MaxMem= 3370123264 cpu:       0.3
 (Enter /opt/qcapps/g09/l601.exe)
 Copying SCF densities to generalized density rwf, IOpCl= 0 IROHF=0.

 **********************************************************************

            Population analysis using the SCF density.

 **********************************************************************

 Alpha  occ. eigenvalues --  -19.18870 -19.10719 -19.10085  -2.47949  -1.52615
 Alpha  occ. eigenvalues --   -1.51965  -1.51334  -1.05029  -0.88062  -0.85454
 Alpha  occ. eigenvalues --   -0.58179  -0.45497  -0.39203  -0.34555  -0.33490
 Alpha  occ. eigenvalues --   -0.31978  -0.30463  -0.30281  -0.26818
 Alpha virt. eigenvalues --   -0.09351  -0.06863  -0.05491  -0.01165   0.00281
 Alpha virt. eigenvalues --    0.01352   0.01947   0.03480   0.03800   0.05403
 Alpha virt. eigenvalues --    0.09898   0.10865   0.12113   0.13017   0.13997
 Alpha virt. eigenvalues --    0.14682   0.15525   0.19868   0.22231   0.24296
 Alpha virt. eigenvalues --    0.27613   0.50577   0.51979   0.52318   0.56544
 Alpha virt. eigenvalues --    0.58403   0.74724   0.84167   0.90275   0.94108
 Alpha virt. eigenvalues --    0.99640   1.02039   1.03625   1.06817   1.12487
 Alpha virt. eigenvalues --    1.13689   1.17261   1.18747   1.23813   1.27443
 Alpha virt. eigenvalues --    1.30533   1.30855   1.32554   1.33420   1.37098
 Alpha virt. eigenvalues --    1.45755   1.48953   1.56414   1.62365   1.68940
 Alpha virt. eigenvalues --    1.72969   1.78812   1.82830   1.85670   1.91478
 Alpha virt. eigenvalues --    1.94028   1.94580   2.15819   2.22258   2.23351
 Alpha virt. eigenvalues --    2.29298   2.34692   2.39167   2.43198   2.48706
 Alpha virt. eigenvalues --    2.67693   2.71869   2.78903   2.88502   3.10694
 Alpha virt. eigenvalues --    3.38400   3.56279  24.35071  24.49612  24.72157
 Alpha virt. eigenvalues --   35.56309
     Molecular Orbital Coefficients:
                           1         2         3         4         5
                           O         O         O         O         O
     Eigenvalues --   -19.18870 -19.10719 -19.10085  -2.47949  -1.52615
   1 1   Ti 1S         -0.00009  -0.00009  -0.00015   0.39457  -0.00380
   2        2S         -0.00031  -0.00078  -0.00095   0.71287  -0.00590
   3        3S         -0.00023   0.00133   0.00115   0.51822  -0.00808
   4        4S          0.00385   0.00529   0.00594   0.01051  -0.00020
   5        5S         -0.00155  -0.00218  -0.00180  -0.00473  -0.00046
   6        6S          0.00031   0.00048   0.00038   0.00129   0.00003
   7        7PX         0.00014  -0.00002   0.00001   0.00090   0.06643
   8        7PY        -0.00002  -0.00003   0.00008   0.00044   0.07606
   9        7PZ        -0.00002  -0.00003  -0.00007   0.00074   0.00078
  10        8PX         0.00069  -0.00014   0.00007   0.00625   0.45158
  11        8PY        -0.00008  -0.00022   0.00047   0.00300   0.51725
  12        8PZ        -0.00011  -0.00021  -0.00042   0.00619   0.00534
  13        9PX        -0.00125   0.00093  -0.00025   0.00027   0.26093
  14        9PY         0.00021   0.00132  -0.00176   0.00014   0.30002
  15        9PZ         0.00022   0.00104   0.00149  -0.00743   0.00351
  16       10PX        -0.00338   0.00332  -0.00096  -0.00091   0.00325
  17       10PY         0.00014   0.00379  -0.00378  -0.00065   0.00466
  18       10PZ         0.00003   0.00191   0.00271  -0.00169  -0.00019
  19       11PX         0.00102  -0.00060   0.00018   0.00009  -0.00049
  20       11PY        -0.00006  -0.00086   0.00092   0.00004  -0.00103
  21       11PZ        -0.00015  -0.00056  -0.00069   0.00084  -0.00019
  22       12D 0       -0.00010  -0.00007  -0.00003   0.00239  -0.00261
  23       12D+1        0.00001   0.00005  -0.00005  -0.00227   0.00433
  24       12D-1        0.00003   0.00006  -0.00027   0.00002   0.00781
  25       12D+2        0.00014  -0.00002  -0.00021   0.00323   0.00015
  26       12D-2        0.00007   0.00015   0.00012  -0.00345   0.00628
  27       13D 0       -0.00118  -0.00012  -0.00003   0.00028  -0.00053
  28       13D+1       -0.00054   0.00096  -0.00031  -0.00066  -0.00073
  29       13D-1        0.00008   0.00122  -0.00163   0.00011  -0.00015
  30       13D+2        0.00218  -0.00048  -0.00104   0.00001   0.00036
  31       13D-2        0.00031   0.00106   0.00061  -0.00021   0.00053
  32       14D 0       -0.00010   0.00003  -0.00004  -0.00033   0.00011
  33       14D+1        0.00020   0.00053  -0.00022  -0.00001  -0.00039
  34       14D-1       -0.00004   0.00061  -0.00059  -0.00030  -0.00101
  35       14D+2        0.00023  -0.00037  -0.00026   0.00010   0.00015
  36       14D-2       -0.00001   0.00039   0.00006   0.00045  -0.00098
  37       15F 0       -0.00012   0.00033   0.00013  -0.00089  -0.00031
  38       15F+1        0.00035   0.00000   0.00006  -0.00009   0.00021
  39       15F-1       -0.00002   0.00000   0.00009  -0.00006   0.00212
  40       15F+2        0.00025   0.00012   0.00020  -0.00034   0.00029
  41       15F-2        0.00010  -0.00044  -0.00001   0.00098   0.00168
  42       15F+3       -0.00048   0.00032  -0.00002  -0.00016  -0.00150
  43       15F-3        0.00004  -0.00013  -0.00008  -0.00006   0.00098
  44 2   O  1S          0.00012   0.00147   0.99516  -0.00434   0.01927
  45        2S          0.00036   0.00019   0.02903   0.00680  -0.03952
  46        2PX        -0.00017   0.00003  -0.00028   0.00101   0.00179
  47        2PY        -0.00004   0.00017   0.00094   0.00655  -0.02244
  48        2PZ         0.00003  -0.00005  -0.00067  -0.00453   0.01913
  49        3S         -0.00113   0.00001  -0.01657   0.00782  -0.03112
  50        3PX         0.00146  -0.00003   0.00068   0.00023   0.00302
  51        3PY        -0.00004  -0.00044  -0.00294   0.00421  -0.00673
  52        3PZ        -0.00006   0.00004   0.00192  -0.00266   0.00693
  53        4D 0        0.00012   0.00002   0.00017  -0.00017  -0.00071
  54        4D+1       -0.00004  -0.00008  -0.00005  -0.00029  -0.00035
  55        4D-1       -0.00003  -0.00007   0.00044  -0.00216   0.00353
  56        4D+2       -0.00021  -0.00002   0.00008  -0.00150   0.00155
  57        4D-2        0.00012  -0.00009   0.00012   0.00043   0.00107
  58 3   O  1S          0.00002   0.99513  -0.00146  -0.00607  -0.03028
  59        2S          0.00003   0.02869   0.00014   0.00974   0.06258
  60        2PX        -0.00003  -0.00059  -0.00008  -0.00598  -0.02281
  61        2PY        -0.00002  -0.00075  -0.00013  -0.00806  -0.03188
  62        2PZ        -0.00002  -0.00049  -0.00002  -0.00506  -0.02462
  63        3S         -0.00011  -0.01572  -0.00022   0.00990   0.04213
  64        3PX        -0.00005   0.00157   0.00025  -0.00313  -0.00503
  65        3PY         0.00039   0.00204   0.00047  -0.00433  -0.00682
  66        3PZ         0.00034   0.00112   0.00009  -0.00248  -0.00648
  67        4D 0        0.00002   0.00010  -0.00003  -0.00075  -0.00037
  68        4D+1        0.00003  -0.00015  -0.00001   0.00146   0.00278
  69        4D-1       -0.00013  -0.00018   0.00010   0.00202   0.00392
  70        4D+2        0.00005   0.00007   0.00009  -0.00075  -0.00090
  71        4D-2        0.00001  -0.00027  -0.00006   0.00243   0.00329
  72 4   O  1S          0.99505  -0.00001  -0.00008  -0.00131   0.00893
  73        2S          0.02907   0.00001   0.00034   0.00166  -0.01808
  74        2PX         0.00018   0.00009  -0.00002   0.00231  -0.01171
  75        2PY         0.00055   0.00000  -0.00011   0.00014   0.00172
  76        2PZ         0.00145   0.00005   0.00005  -0.00014  -0.00083
  77        3S         -0.01478   0.00004  -0.00147   0.00338  -0.01932
  78        3PX        -0.00329  -0.00018  -0.00029   0.00271  -0.00673
  79        3PY         0.00097   0.00017   0.00076  -0.00030   0.00182
  80        3PZ        -0.00078  -0.00031  -0.00046   0.00015  -0.00042
  81        4D 0        0.00025  -0.00001  -0.00001  -0.00059   0.00072
  82        4D+1       -0.00058   0.00001  -0.00002  -0.00013   0.00017
  83        4D-1        0.00072  -0.00002  -0.00003  -0.00003  -0.00012
  84        4D+2       -0.00036   0.00006   0.00000   0.00101  -0.00142
  85        4D-2       -0.00041   0.00008   0.00010   0.00010   0.00086
  86 5   H  1S         -0.00114   0.00002   0.00014   0.00005  -0.00177
  87        2S          0.00089   0.00031  -0.00029   0.00029  -0.00046
  88        3PX        -0.00086   0.00004  -0.00002  -0.00005  -0.00029
  89        3PY         0.00113  -0.00003  -0.00005  -0.00003   0.00016
  90        3PZ         0.00134   0.00001  -0.00002  -0.00006   0.00016
  91 6   H  1S          0.00096   0.00010   0.00105   0.00094  -0.01204
  92        2S          0.00279   0.00121   0.00124  -0.00213   0.00415
  93        3PX         0.00034   0.00005   0.00065   0.00037  -0.00194
  94        3PY        -0.00016   0.00012  -0.00006   0.00026  -0.00111
  95        3PZ         0.00018   0.00001  -0.00002  -0.00021   0.00109
                           6         7         8         9        10
                           O         O         O         O         O
     Eigenvalues --    -1.51965  -1.51334  -1.05029  -0.88062  -0.85454
   1 1   Ti 1S         -0.00316  -0.00155  -0.02183  -0.05514  -0.03089
   2        2S          0.00041  -0.00249  -0.04999  -0.12817  -0.07229
   3        3S         -0.01926  -0.00293  -0.02077  -0.06225  -0.03565
   4        4S         -0.00140  -0.00120   0.00191   0.01770   0.01370
   5        5S          0.00142  -0.00055   0.01146   0.00777   0.00354
   6        6S         -0.00020   0.00007  -0.00140  -0.00097  -0.00033
   7        7PX        -0.00201   0.07993   0.01173  -0.00230  -0.01519
   8        7PY        -0.00005  -0.06818   0.00213   0.01112  -0.02571
   9        7PZ         0.10412   0.00076  -0.00355  -0.01680  -0.00672
  10        8PX        -0.01358   0.54348   0.08236  -0.01651  -0.10852
  11        8PY        -0.00032  -0.46375   0.01497   0.07916  -0.18357
  12        8PZ         0.70766   0.00522  -0.02500  -0.11984  -0.04807
  13        9PX        -0.00744   0.30650   0.03945  -0.00823  -0.05506
  14        9PY         0.00008  -0.26302   0.00749   0.03940  -0.09319
  15        9PZ         0.40427   0.00316  -0.01316  -0.06091  -0.02505
  16       10PX        -0.00325   0.00784  -0.00064  -0.00371  -0.00765
  17       10PY        -0.00132  -0.00547  -0.00212  -0.00240  -0.00501
  18       10PZ         0.00960  -0.00045   0.00047  -0.00652  -0.00357
  19       11PX         0.00017  -0.00134  -0.00692   0.00224   0.00526
  20       11PY         0.00016   0.00147  -0.00026  -0.00339   0.00841
  21       11PZ        -0.00224  -0.00012   0.00202   0.00682   0.00278
  22       12D 0       -0.00477  -0.00036  -0.01318  -0.00834  -0.01954
  23       12D+1        0.00363  -0.00255  -0.00636   0.00284   0.04848
  24       12D-1        0.00091  -0.00047  -0.00378  -0.04404   0.08326
  25       12D+2       -0.00271   0.00128   0.01755  -0.05478  -0.00260
  26       12D-2        0.00459  -0.00134   0.00715   0.04708   0.06007
  27       13D 0       -0.00641   0.00046   0.00031  -0.00397  -0.00432
  28       13D+1       -0.00156  -0.00283  -0.00131  -0.00296   0.00485
  29       13D-1       -0.00146   0.00103  -0.00080  -0.00625   0.00988
  30       13D+2       -0.00073  -0.00310   0.00004  -0.00466   0.00124
  31       13D-2        0.00319   0.00021   0.00003   0.00690   0.00859
  32       14D 0        0.00060   0.00004  -0.00226  -0.00043  -0.00111
  33       14D+1       -0.00049   0.00093  -0.00260   0.00016  -0.00027
  34       14D-1        0.00005   0.00030  -0.00122  -0.00238   0.00114
  35       14D+2        0.00116   0.00058   0.00323  -0.00221   0.00118
  36       14D-2       -0.00053  -0.00036   0.00097   0.00084   0.00163
  37       15F 0       -0.00161   0.00023  -0.00139  -0.00810  -0.00430
  38       15F+1       -0.00106  -0.00078   0.00212  -0.00143   0.00004
  39       15F-1       -0.00090  -0.00135  -0.00005  -0.00276   0.00056
  40       15F+2       -0.00174  -0.00231   0.00047  -0.00851   0.00027
  41       15F-2        0.00263   0.00086   0.00081   0.00685   0.00758
  42       15F+3       -0.00110   0.00186  -0.00295   0.00003  -0.00842
  43       15F-3        0.00140   0.00010  -0.00028   0.00426   0.00130
  44 2   O  1S         -0.01533  -0.01145  -0.02081  -0.20617   0.08044
  45        2S          0.03169   0.02391   0.04290   0.44796  -0.17696
  46        2PX         0.00233   0.00843  -0.01453  -0.02428   0.00712
  47        2PY         0.02228   0.01184   0.00776   0.04194  -0.01463
  48        2PZ        -0.00789  -0.01179  -0.00453  -0.03390   0.00428
  49        3S          0.02187   0.01597   0.05157   0.50644  -0.19978
  50        3PX         0.00035   0.00344  -0.01241  -0.02149   0.00902
  51        3PY         0.00752   0.00262   0.00691   0.04671  -0.01407
  52        3PZ        -0.00042  -0.00337  -0.00463  -0.03482   0.00994
  53        4D 0       -0.00165   0.00043  -0.00115  -0.00334   0.00218
  54        4D+1       -0.00017  -0.00115   0.00101   0.00051   0.00055
  55        4D-1       -0.00159  -0.00172  -0.00092  -0.00791   0.00260
  56        4D+2       -0.00217  -0.00028   0.00105  -0.00083   0.00033
  57        4D-2        0.00032   0.00139  -0.00189  -0.00306   0.00130
  58 3   O  1S         -0.01506   0.00215  -0.00755  -0.08089  -0.21239
  59        2S          0.03093  -0.00445   0.01529   0.17653   0.47050
  60        2PX        -0.01470   0.00994  -0.00095  -0.01212  -0.02185
  61        2PY        -0.01925  -0.00400  -0.00433  -0.01122  -0.02920
  62        2PZ        -0.00209   0.00165  -0.00399  -0.01687  -0.02011
  63        3S          0.01987  -0.00300   0.01775   0.19564   0.51509
  64        3PX        -0.00400   0.00427  -0.00155  -0.01226  -0.02404
  65        3PY        -0.00511  -0.00253  -0.00336  -0.01439  -0.03001
  66        3PZ         0.00249   0.00067  -0.00276  -0.01124  -0.02351
  67        4D 0       -0.00224   0.00000   0.00001   0.00004  -0.00214
  68        4D+1        0.00030  -0.00110   0.00017   0.00159   0.00218
  69        4D-1        0.00036   0.00032   0.00096   0.00174   0.00485
  70        4D+2       -0.00077  -0.00219  -0.00042  -0.00054  -0.00109
  71        4D-2        0.00278  -0.00078   0.00018   0.00211   0.00474
  72 4   O  1S         -0.00178   0.00922  -0.21280   0.03189  -0.00469
  73        2S          0.00355  -0.01940   0.46414  -0.07314   0.01138
  74        2PX         0.00227  -0.01254  -0.00030   0.02632  -0.00119
  75        2PY        -0.00029  -0.00222   0.01834  -0.03513   0.00855
  76        2PZ         0.00269  -0.00032   0.08480  -0.00719  -0.00553
  77        3S          0.00329  -0.01753   0.47886  -0.07571   0.00904
  78        3PX         0.00025  -0.00524   0.02953   0.00967   0.00008
  79        3PY         0.00018  -0.00198  -0.00250  -0.01751   0.00474
  80        3PZ         0.00313  -0.00136   0.03784  -0.00024  -0.00216
  81        4D 0       -0.00008   0.00067  -0.00164  -0.00002  -0.00021
  82        4D+1        0.00120   0.00006  -0.00113   0.00210  -0.00120
  83        4D-1        0.00006  -0.00034  -0.00070  -0.00250   0.00101
  84        4D+2        0.00011  -0.00112   0.00331  -0.00073   0.00041
  85        4D-2        0.00005  -0.00076  -0.00521  -0.00144  -0.00011
  86 5   H  1S          0.00050  -0.00197   0.15067  -0.03878   0.00435
  87        2S         -0.00149   0.00150   0.00858  -0.00553   0.00003
  88        3PX         0.00005  -0.00026   0.01207  -0.00213   0.00013
  89        3PY        -0.00014   0.00029  -0.01427   0.00258  -0.00004
  90        3PZ        -0.00017   0.00029  -0.01396   0.00330  -0.00038
  91 6   H  1S          0.00524  -0.00435   0.09567   0.05229  -0.02078
  92        2S         -0.00417   0.00237  -0.01333   0.00375  -0.00772
  93        3PX         0.00103   0.00022  -0.00566   0.00903  -0.00300
  94        3PY         0.00042  -0.00125   0.01260  -0.00327   0.00067
  95        3PZ         0.00028   0.00063  -0.00674   0.00115  -0.00087
                          11        12        13        14        15
                           O         O         O         O         O
     Eigenvalues --    -0.58179  -0.45497  -0.39203  -0.34555  -0.33490
   1 1   Ti 1S          0.01390   0.01930  -0.02685   0.03625  -0.00712
   2        2S          0.03383   0.04650  -0.06387   0.08945  -0.01809
   3        3S          0.01626   0.02725  -0.03976   0.05519  -0.01003
   4        4S         -0.04098  -0.09893   0.11984  -0.15078   0.00800
   5        5S          0.01994   0.00202  -0.03965   0.08676  -0.01684
   6        6S         -0.00349  -0.00107   0.00222  -0.01653   0.00322
   7        7PX        -0.01029  -0.00367   0.01061  -0.00079  -0.00457
   8        7PY        -0.00066  -0.00049  -0.00210  -0.00011  -0.01232
   9        7PZ        -0.00116  -0.00304  -0.00258  -0.00231  -0.00044
  10        8PX        -0.07471  -0.02697   0.07812  -0.00544  -0.03430
  11        8PY        -0.00473  -0.00349  -0.01550  -0.00098  -0.09199
  12        8PZ        -0.00838  -0.02221  -0.01896  -0.01611  -0.00328
  13        9PX        -0.02363  -0.00753   0.02487  -0.00119  -0.01356
  14        9PY        -0.00273  -0.00306  -0.00266  -0.00100  -0.03777
  15        9PZ        -0.00463  -0.00657  -0.00549  -0.00386  -0.00277
  16       10PX         0.02129   0.04444  -0.05560   0.02831  -0.04134
  17       10PY         0.00487   0.00916   0.03269  -0.00886  -0.05631
  18       10PZ         0.00442   0.02585   0.04022   0.06949  -0.00587
  19       11PX        -0.00501  -0.00146   0.03552  -0.00127  -0.01056
  20       11PY         0.00075   0.00072   0.00649  -0.00962  -0.02372
  21       11PZ         0.00212   0.00331  -0.00248   0.01407   0.00250
  22       12D 0        0.03384   0.04073  -0.03945   0.21016  -0.06558
  23       12D+1        0.02000  -0.07928  -0.07204   0.06109   0.14368
  24       12D-1       -0.01537   0.00543  -0.02033   0.07616   0.36683
  25       12D+2       -0.07327  -0.03788   0.13767   0.21024   0.03273
  26       12D-2       -0.04927   0.05054  -0.04786  -0.15706   0.14324
  27       13D 0        0.01344   0.02008  -0.00869   0.09513  -0.02469
  28       13D+1        0.00560  -0.03919  -0.04183   0.03114   0.04491
  29       13D-1       -0.00460  -0.00044  -0.00919   0.02847   0.11281
  30       13D+2       -0.02492  -0.01799   0.05072   0.08380   0.00416
  31       13D-2       -0.02967   0.01718  -0.02376  -0.07165   0.04097
  32       14D 0       -0.00050   0.01113   0.01064   0.01851   0.00281
  33       14D+1       -0.00184  -0.01711  -0.01434   0.00909  -0.01782
  34       14D-1       -0.00002   0.00476   0.00099  -0.00556  -0.02375
  35       14D+2       -0.00137  -0.00875  -0.01202   0.00091  -0.00965
  36       14D-2       -0.00249   0.00372  -0.01920   0.00763  -0.01747
  37       15F 0        0.00093  -0.00417  -0.00220   0.00756  -0.00379
  38       15F+1       -0.00451  -0.00561   0.00340   0.00519   0.00379
  39       15F-1       -0.00263  -0.00023  -0.00323   0.00340   0.00917
  40       15F+2       -0.00523   0.00791   0.00668   0.00823   0.00390
  41       15F-2       -0.00484   0.00385   0.00084  -0.00294   0.00922
  42       15F+3        0.00377   0.00862  -0.00542   0.00382  -0.00430
  43       15F-3        0.00936  -0.00670   0.00248  -0.00377   0.00064
  44 2   O  1S         -0.04127   0.02446   0.00188  -0.02074  -0.01561
  45        2S          0.09651  -0.05767  -0.00672   0.04644   0.03233
  46        2PX         0.10479  -0.14779  -0.03866   0.04850  -0.15747
  47        2PY        -0.01868   0.05199   0.04233  -0.09227  -0.32544
  48        2PZ         0.01218   0.00533   0.05017   0.35358   0.02252
  49        3S          0.11941  -0.08472   0.00439   0.09593   0.07002
  50        3PX         0.05669  -0.08819  -0.03204   0.03411  -0.10599
  51        3PY        -0.01237   0.03189   0.03011  -0.05319  -0.20700
  52        3PZ         0.00702   0.00400   0.02947   0.22202   0.00876
  53        4D 0        0.00202  -0.00414  -0.00386  -0.01157   0.00697
  54        4D+1       -0.00520   0.00384   0.00011  -0.00526   0.00510
  55        4D-1        0.00067  -0.00063   0.00088   0.01423   0.00713
  56        4D+2       -0.00323   0.00188  -0.00166  -0.00004   0.01217
  57        4D-2        0.00648  -0.00806  -0.00417   0.00441  -0.00266
  58 3   O  1S         -0.00705  -0.00358  -0.00088  -0.01526   0.02251
  59        2S          0.01490   0.00759  -0.00061   0.03304  -0.04508
  60        2PX        -0.00574  -0.00798   0.04660   0.12941  -0.24233
  61        2PY         0.01666   0.02294   0.01379  -0.07820  -0.32782
  62        2PZ         0.01446  -0.00022   0.01025   0.35889  -0.05984
  63        3S          0.03217   0.01945   0.01368   0.08288  -0.11302
  64        3PX        -0.00227  -0.00506   0.03130   0.07614  -0.14334
  65        3PY         0.00358   0.00867   0.00270  -0.05341  -0.19521
  66        3PZ         0.00299  -0.00252   0.00124   0.21631  -0.02689
  67        4D 0       -0.00076   0.00074   0.00022  -0.01173  -0.00734
  68        4D+1        0.00014   0.00054  -0.00206  -0.01176   0.00318
  69        4D-1       -0.00184  -0.00022  -0.00009  -0.00769   0.00586
  70        4D+2        0.00124   0.00174  -0.00070  -0.00747  -0.00198
  71        4D-2        0.00047   0.00050  -0.00233   0.00098   0.01031
  72 4   O  1S          0.01319   0.05729   0.02462  -0.00567   0.01095
  73        2S         -0.02336  -0.12982  -0.06738   0.01507  -0.02444
  74        2PX        -0.31679  -0.10742   0.44919  -0.01338   0.01992
  75        2PY         0.36416  -0.13506   0.35997  -0.08829   0.07502
  76        2PZ         0.09367   0.48979   0.15702   0.01885   0.01998
  77        3S         -0.07496  -0.22896  -0.07524   0.02184  -0.06214
  78        3PX        -0.18113  -0.06900   0.33714  -0.01719   0.01576
  79        3PY         0.20347  -0.09468   0.25008  -0.05744   0.05684
  80        3PZ         0.04157   0.32175   0.11720   0.01348   0.01229
  81        4D 0        0.00652   0.01915  -0.00061   0.00244  -0.00043
  82        4D+1       -0.01143   0.00647   0.01666   0.00000  -0.00168
  83        4D-1        0.01692  -0.00292   0.01085  -0.00298   0.00347
  84        4D+2       -0.00656  -0.00423   0.00732   0.00123  -0.00052
  85        4D-2        0.00409  -0.00533   0.00846   0.00179  -0.00160
  86 5   H  1S          0.23990   0.12252   0.02957  -0.02142   0.02854
  87        2S          0.11071   0.08107   0.01271  -0.01987   0.01859
  88        3PX         0.00603   0.00429   0.01639  -0.00134   0.00165
  89        3PY        -0.00695  -0.01320   0.00938  -0.00206   0.00143
  90        3PZ        -0.01514   0.00556   0.00230   0.00210  -0.00029
  91 6   H  1S         -0.19333   0.15493  -0.00343   0.00400   0.00567
  92        2S         -0.07546   0.13029  -0.05207   0.04435   0.02028
  93        3PX        -0.00155  -0.00098   0.01257  -0.00800   0.00159
  94        3PY        -0.01084   0.00906   0.00746   0.00291  -0.00658
  95        3PZ         0.01378   0.00383   0.00656   0.00374   0.00068
                          16        17        18        19        20
                           O         O         O         O         V
     Eigenvalues --    -0.31978  -0.30463  -0.30281  -0.26818  -0.09351
   1 1   Ti 1S          0.00714  -0.03923  -0.05733  -0.00338  -0.06853
   2        2S          0.01768  -0.09780  -0.14476  -0.00798  -0.15783
   3        3S          0.00770  -0.05314  -0.07211  -0.00731  -0.16650
   4        4S         -0.02422   0.13733   0.14262   0.01090   0.51350
   5        5S         -0.00538  -0.08075  -0.09506   0.01002   0.16855
   6        6S          0.00252   0.01245   0.01631  -0.00273   0.07202
   7        7PX        -0.01032  -0.00997   0.00013  -0.00632  -0.00759
   8        7PY         0.00061   0.00590  -0.00031  -0.01805   0.00258
   9        7PZ         0.00307  -0.00634  -0.01522   0.00051   0.01365
  10        8PX        -0.07620  -0.07389   0.00052  -0.04718  -0.05736
  11        8PY         0.00419   0.04360  -0.00229  -0.13444   0.01938
  12        8PZ         0.02262  -0.04737  -0.11316   0.00374   0.10261
  13        9PX        -0.02313  -0.02369  -0.00545  -0.02111  -0.00656
  14        9PY        -0.00025   0.01183  -0.00031  -0.05390   0.00090
  15        9PZ         0.00728  -0.01994  -0.04462   0.00042   0.01736
  16       10PX         0.06456   0.06740  -0.06530  -0.00091   0.10719
  17       10PY        -0.02935  -0.07730   0.01794   0.06382  -0.06930
  18       10PZ        -0.03426   0.01149   0.03402   0.01401  -0.27164
  19       11PX        -0.00677   0.01397  -0.00622  -0.00442   0.01103
  20       11PY        -0.00003  -0.00295   0.01106  -0.01692  -0.01602
  21       11PZ        -0.00064  -0.00463  -0.01571   0.00482  -0.09887
  22       12D 0       -0.05361  -0.05781   0.18424  -0.00856   0.33589
  23       12D+1        0.04628   0.17701   0.07849  -0.00873  -0.34149
  24       12D-1       -0.11240  -0.03089  -0.04942   0.05384   0.19443
  25       12D+2        0.20773  -0.02898  -0.09677   0.00931   0.03539
  26       12D-2        0.18922  -0.01679   0.17452   0.04795  -0.08322
  27       13D 0       -0.02708  -0.02283   0.08299   0.00740   0.15141
  28       13D+1        0.01214   0.05981   0.01610  -0.02629  -0.15737
  29       13D-1       -0.05730  -0.00666  -0.01526  -0.02605   0.07489
  30       13D+2        0.09862   0.00225  -0.00387   0.00158   0.01380
  31       13D-2        0.08689  -0.02387   0.04445  -0.00018  -0.02739
  32       14D 0       -0.00580   0.00929   0.02909   0.01117   0.04188
  33       14D+1        0.00275  -0.00238  -0.00129  -0.03157  -0.03969
  34       14D-1       -0.02128  -0.00469   0.00814  -0.05036   0.01694
  35       14D+2        0.02928  -0.00130   0.04158  -0.00448   0.01602
  36       14D-2        0.01859  -0.01399  -0.03170  -0.00544  -0.00768
  37       15F 0        0.00132  -0.00579  -0.00726   0.00400  -0.00627
  38       15F+1       -0.00775   0.00252  -0.00044  -0.00851   0.00234
  39       15F-1       -0.00791   0.00465  -0.00477  -0.02292  -0.00289
  40       15F+2        0.01142   0.00095  -0.00757  -0.00309   0.00215
  41       15F-2        0.00552  -0.00485   0.01416  -0.00844   0.00024
  42       15F+3        0.00542  -0.01073   0.00323  -0.01811   0.00117
  43       15F-3        0.01443   0.01270  -0.00211  -0.00743   0.00215
  44 2   O  1S         -0.00185   0.00374   0.01755  -0.01083   0.00998
  45        2S          0.00369  -0.00611  -0.04501   0.03319  -0.02573
  46        2PX        -0.14174   0.44870  -0.06659   0.17211   0.02286
  47        2PY         0.03708   0.01002   0.44541   0.02626  -0.03671
  48        2PZ         0.06210  -0.15138   0.04009   0.43416  -0.04837
  49        3S          0.00915  -0.02811  -0.05266   0.00865  -0.06111
  50        3PX        -0.09524   0.31686  -0.05006   0.12680   0.02439
  51        3PY         0.02388   0.01152   0.31243   0.01393  -0.03746
  52        3PZ         0.04371  -0.11164   0.02734   0.32234  -0.04320
  53        4D 0       -0.00445   0.00738  -0.01088  -0.00880  -0.00004
  54        4D+1        0.00461  -0.01039   0.00290  -0.00786  -0.00054
  55        4D-1        0.00023  -0.00401  -0.00619   0.00961   0.00569
  56        4D+2        0.00029  -0.00392  -0.01340  -0.00396  -0.00139
  57        4D-2       -0.00539   0.01634  -0.00588   0.00321  -0.00186
  58 3   O  1S          0.00249   0.00967   0.01405   0.00786   0.01132
  59        2S         -0.00577  -0.02231  -0.03340  -0.02302  -0.03224
  60        2PX         0.40669   0.04787  -0.21413  -0.16650   0.05372
  61        2PY        -0.24021  -0.26415  -0.27512   0.08267  -0.03595
  62        2PZ        -0.22600  -0.02653   0.07140  -0.38465  -0.06271
  63        3S         -0.01046  -0.04111  -0.05219  -0.00578  -0.05221
  64        3PX         0.26763   0.03666  -0.14497  -0.12192   0.04909
  65        3PY        -0.15675  -0.17728  -0.18175   0.05754  -0.03287
  66        3PZ        -0.14627  -0.01708   0.05031  -0.27777  -0.05656
  67        4D 0        0.00808  -0.00313  -0.00744   0.00696   0.00049
  68        4D+1       -0.00493  -0.00113   0.00057   0.00783  -0.00552
  69        4D-1        0.01212   0.00384  -0.00098   0.00483  -0.00263
  70        4D+2       -0.01764  -0.00902  -0.00296   0.00475   0.00299
  71        4D-2       -0.00752   0.00170   0.01015   0.00103   0.00015
  72 4   O  1S          0.00888  -0.00524   0.00339  -0.01018   0.01022
  73        2S         -0.01695   0.01357  -0.01041   0.02450  -0.02573
  74        2PX        -0.09750   0.11530  -0.03967   0.02384  -0.04014
  75        2PY         0.05452  -0.13698   0.06626  -0.08288  -0.02286
  76        2PZ        -0.05008   0.22221  -0.08766   0.03592  -0.01874
  77        3S         -0.06843   0.04653  -0.01539   0.05743  -0.06344
  78        3PX        -0.08193   0.08477  -0.02512   0.00994  -0.03803
  79        3PY         0.04031  -0.11302   0.04435  -0.06082  -0.02002
  80        3PZ        -0.03815   0.17285  -0.05854   0.03266  -0.01336
  81        4D 0       -0.00236   0.00818  -0.00101   0.00329   0.00181
  82        4D+1       -0.00517   0.00142  -0.00057   0.00061   0.00397
  83        4D-1        0.00105  -0.00057   0.00098  -0.00167   0.00075
  84        4D+2        0.00140   0.00269  -0.00174   0.00201  -0.00150
  85        4D-2       -0.00372   0.00208  -0.00369   0.00221   0.00217
  86 5   H  1S          0.03094  -0.00461   0.00543  -0.02503  -0.00338
  87        2S          0.03372   0.00990  -0.00630  -0.03361   0.01931
  88        3PX        -0.00222   0.00452  -0.00158  -0.00007  -0.00132
  89        3PY        -0.00008  -0.00474   0.00286  -0.00159   0.00013
  90        3PZ        -0.00330   0.00695  -0.00259   0.00284   0.00041
  91 6   H  1S         -0.00242  -0.02122   0.00474  -0.02365  -0.00274
  92        2S         -0.00210  -0.07533  -0.01952  -0.03829  -0.01782
  93        3PX         0.00695  -0.01758   0.01051  -0.00933  -0.00082
  94        3PY        -0.00422   0.01378  -0.00045   0.00780  -0.00044
  95        3PZ         0.00280  -0.00776   0.00433   0.00387   0.00106
                          21        22        23        24        25
                           V         V         V         V         V
     Eigenvalues --    -0.06863  -0.05491  -0.01165   0.00281   0.01352
   1 1   Ti 1S         -0.00412   0.04059  -0.00298   0.02691   0.02404
   2        2S         -0.00711   0.09373  -0.00700   0.06286   0.05982
   3        3S         -0.02383   0.09426  -0.00927   0.06299   0.03840
   4        4S          0.06411  -0.14048  -0.01741  -0.11291   0.01517
   5        5S          0.15203  -0.16116  -0.10281  -0.46009  -0.54786
   6        6S          0.07067  -0.11947   0.56423   0.84093   0.72888
   7        7PX         0.00903   0.00404  -0.00336   0.00884  -0.00009
   8        7PY        -0.00593   0.00228  -0.00672   0.01527   0.00296
   9        7PZ         0.01450   0.00356  -0.00240  -0.00150  -0.00046
  10        8PX         0.06821   0.02967  -0.02499   0.06630  -0.00053
  11        8PY        -0.04462   0.01723  -0.05094   0.11535   0.02227
  12        8PZ         0.10920   0.02722  -0.01847  -0.01118  -0.00387
  13        9PX         0.01881   0.00861  -0.01653   0.03147   0.00135
  14        9PY        -0.00872   0.00966  -0.02123   0.05365   0.00988
  15        9PZ         0.03059   0.01053   0.00004   0.00706   0.00815
  16       10PX        -0.11011  -0.08098   0.12402   0.00337  -0.07802
  17       10PY         0.10977  -0.06195   0.06302  -0.22358   0.00779
  18       10PZ        -0.25338   0.00756   0.05725   0.07952   0.13423
  19       11PX        -0.06089   0.13736  -0.26120  -0.36042   0.65491
  20       11PY         0.02349  -0.01623   0.13209  -0.02965  -0.26537
  21       11PZ        -0.05256   0.00415  -0.02135   0.08406  -0.56959
  22       12D 0        0.29497   0.43124  -0.17057   0.00492  -0.20327
  23       12D+1        0.56479  -0.16308  -0.15832   0.03863   0.10644
  24       12D-1       -0.23681  -0.04400  -0.30937   0.32176  -0.03377
  25       12D+2       -0.04684  -0.01117   0.42259  -0.19313  -0.06157
  26       12D-2       -0.00206   0.53047   0.28591   0.15479   0.08900
  27       13D 0        0.13614   0.16965  -0.06155   0.00138  -0.10675
  28       13D+1        0.26413  -0.07461  -0.07328   0.06726   0.03996
  29       13D-1       -0.10536  -0.01810  -0.16446   0.19800   0.00060
  30       13D+2       -0.04785   0.00331   0.15249  -0.11028  -0.00007
  31       13D-2        0.00724   0.24826   0.13157   0.10709   0.04210
  32       14D 0        0.03187   0.02143  -0.00168  -0.02657   0.15024
  33       14D+1        0.02641   0.03555  -0.04006   0.05858   0.00370
  34       14D-1       -0.03877  -0.00046  -0.02507   0.14206   0.04431
  35       14D+2       -0.05413  -0.08292   0.00129   0.04620  -0.06711
  36       14D-2        0.01956   0.05641  -0.08785   0.02457   0.02956
  37       15F 0       -0.00455  -0.01003   0.00132   0.00128   0.00121
  38       15F+1       -0.00924   0.00671   0.00431  -0.00494   0.00379
  39       15F-1        0.00431   0.00335   0.01242  -0.01227  -0.00117
  40       15F+2       -0.00002  -0.00086  -0.00978   0.00230  -0.00103
  41       15F-2       -0.00230  -0.00732  -0.00433  -0.00370   0.00475
  42       15F+3        0.00126  -0.00824   0.00397  -0.00381  -0.00397
  43       15F-3       -0.00001   0.00163  -0.00591   0.00263  -0.00421
  44 2   O  1S          0.01143  -0.01316   0.00294   0.00222  -0.00248
  45        2S         -0.02129   0.03786  -0.00302  -0.01483   0.01050
  46        2PX        -0.06520   0.12887   0.09301   0.10390  -0.05851
  47        2PY        -0.10749  -0.13090  -0.08995   0.12200   0.05910
  48        2PZ        -0.01065  -0.06524  -0.04811   0.04979   0.08470
  49        3S         -0.08527   0.05286  -0.04434   0.02496   0.00634
  50        3PX        -0.06613   0.11706   0.08138   0.08867  -0.03853
  51        3PY        -0.11464  -0.12195  -0.10173   0.13242   0.04155
  52        3PZ        -0.00134  -0.06195  -0.04318   0.05435   0.08329
  53        4D 0       -0.00275   0.00139  -0.00221   0.00468   0.00156
  54        4D+1        0.00114   0.00674   0.00507   0.00025   0.00040
  55        4D-1        0.00363  -0.00034  -0.00161   0.00090  -0.00182
  56        4D+2        0.00351  -0.01037  -0.00208  -0.00094   0.00032
  57        4D-2        0.00751  -0.00247  -0.00306  -0.00253  -0.00121
  58 3   O  1S          0.00554  -0.00629   0.00474   0.00593   0.00107
  59        2S         -0.00997   0.02454  -0.01754   0.00499   0.00744
  60        2PX         0.00872   0.00225  -0.20264   0.17081  -0.05719
  61        2PY         0.10305   0.07893  -0.00629   0.09360   0.03683
  62        2PZ        -0.05122   0.02683   0.12687  -0.04465   0.08898
  63        3S         -0.04911   0.00709  -0.01032  -0.12594  -0.04275
  64        3PX         0.01452   0.01071  -0.20919   0.19073  -0.03104
  65        3PY         0.10213   0.08398  -0.00655   0.12606   0.05294
  66        3PZ        -0.04553   0.03252   0.12843  -0.03223   0.08887
  67        4D 0       -0.00050   0.00417   0.00431  -0.00072   0.00067
  68        4D+1        0.00092  -0.00205  -0.00267   0.00047   0.00246
  69        4D-1       -0.00512  -0.00066   0.00518   0.00060  -0.00029
  70        4D+2       -0.00510  -0.00145  -0.00514   0.00167   0.00074
  71        4D-2       -0.00060   0.00544  -0.00464   0.00256  -0.00043
  72 4   O  1S          0.01801  -0.03610   0.02833   0.01897  -0.02720
  73        2S         -0.04242   0.08949  -0.07368  -0.05120   0.07459
  74        2PX         0.06749   0.09314  -0.02805   0.11109  -0.02870
  75        2PY         0.00899   0.05357  -0.06386   0.01968   0.06628
  76        2PZ         0.08552   0.03510  -0.03787  -0.04719   0.07881
  77        3S         -0.12222   0.25506  -0.20463  -0.14237   0.20005
  78        3PX         0.07822   0.08724  -0.01317   0.14987  -0.07216
  79        3PY         0.01348   0.03619  -0.09012   0.00006   0.07375
  80        3PZ         0.06524   0.03134  -0.05018  -0.04700   0.05817
  81        4D 0        0.00808   0.00271  -0.00650   0.00058   0.00189
  82        4D+1       -0.00818   0.00474  -0.00372   0.00245  -0.00261
  83        4D-1       -0.00151   0.00592   0.00018   0.00534   0.00213
  84        4D+2       -0.00692   0.00099   0.01133  -0.00297   0.00080
  85        4D-2       -0.00107  -0.00688  -0.00429  -0.00569  -0.00093
  86 5   H  1S          0.03430  -0.01343   0.04539   0.03961  -0.02145
  87        2S          0.08265  -0.04635   0.19341   0.22259  -0.15729
  88        3PX         0.00202   0.00606  -0.00672  -0.00207   0.00602
  89        3PY         0.00069  -0.00178   0.00323   0.00678  -0.00691
  90        3PZ         0.00355  -0.00217   0.00391   0.00483  -0.00606
  91 6   H  1S          0.03545  -0.06084  -0.01116   0.01058  -0.02052
  92        2S          0.11786  -0.19335  -0.08595  -0.02601   0.04002
  93        3PX        -0.00533   0.00162   0.00412   0.00028   0.00238
  94        3PY        -0.00428   0.00737   0.00212  -0.00071   0.00378
  95        3PZ         0.00096  -0.00632  -0.00486  -0.00011  -0.00141
                          26        27        28        29        30
                           V         V         V         V         V
     Eigenvalues --     0.01947   0.03480   0.03800   0.05403   0.09898
   1 1   Ti 1S          0.01761  -0.01580  -0.00409   0.01777   0.03229
   2        2S          0.04569  -0.03194  -0.00549   0.04136   0.06713
   3        3S          0.02281  -0.05781  -0.02737   0.04580   0.12351
   4        4S          0.03069   0.30205   0.12243  -0.79372  -0.90158
   5        5S         -0.50282  -0.57563  -0.06658   1.95484   1.16781
   6        6S          0.62094   0.56282   0.07523  -1.06014  -0.53228
   7        7PX        -0.00150  -0.00382   0.00263   0.00388   0.00088
   8        7PY        -0.01430  -0.00588   0.01186   0.00089  -0.00321
   9        7PZ        -0.00150  -0.00054  -0.00011   0.00960  -0.01079
  10        8PX        -0.01205  -0.02883   0.02013   0.02902   0.00655
  11        8PY        -0.10745  -0.04448   0.08938   0.00701  -0.02428
  12        8PZ        -0.01150  -0.00379  -0.00043   0.07185  -0.08138
  13        9PX        -0.00591  -0.00833   0.01228   0.01558   0.01001
  14        9PY        -0.04633  -0.01880   0.03565   0.00285  -0.01113
  15        9PZ         0.00060  -0.00580  -0.00115   0.02792  -0.04422
  16       10PX        -0.07954  -0.01763  -0.21261  -0.14979  -0.10121
  17       10PY         0.13967   0.21024  -0.47453  -0.04530   0.04180
  18       10PZ         0.11453  -0.15569  -0.03299  -0.34852   0.72138
[...]
  81        4D 0        0.00000   0.00000   0.00000   0.00000   0.00000
  82        4D+1        0.00000   0.00000   0.00000   0.00000   0.00000
  83        4D-1        0.00000   0.00000   0.00000   0.00000   0.00000
  84        4D+2        0.00000   0.00000   0.00000   0.00000   0.00000
  85        4D-2        0.00000   0.00000   0.00000   0.00000   0.00000
  86 5   H  1S          0.00000   0.00000   0.00000   0.00000   0.00000
  87        2S          0.00003   0.00000   0.00000   0.00000  -0.00001
  88        3PX         0.00000   0.00000   0.00000   0.00000   0.00000
  89        3PY         0.00000   0.00000   0.00000   0.00000   0.00000
  90        3PZ         0.00000   0.00000   0.00000   0.00000   0.00000
  91 6   H  1S          0.00000   0.00000   0.00000   0.00000   0.00000
  92        2S          0.00008   0.00000   0.00000   0.00000   0.00000
  93        3PX         0.00000   0.00000   0.00000   0.00000   0.00000
  94        3PY         0.00000   0.00000   0.00000   0.00000   0.00000
  95        3PZ         0.00000   0.00000   0.00000   0.00000   0.00000
                          71        72        73        74        75
  71        4D-2        0.00066
  72 4   O  1S          0.00000   2.08340
  73        2S          0.00000  -0.03929   0.49459
  74        2PX         0.00000   0.00000   0.00000   0.65138
  75        2PY         0.00000   0.00000   0.00000   0.00000   0.66492
  76        2PZ         0.00000   0.00000   0.00000   0.00000   0.00000
  77        3S          0.00000  -0.04621   0.41257   0.00000   0.00000
  78        3PX         0.00000   0.00000   0.00000   0.21794   0.00000
  79        3PY         0.00000   0.00000   0.00000   0.00000   0.22370
  80        3PZ         0.00000   0.00000   0.00000   0.00000   0.00000
  81        4D 0        0.00000   0.00000   0.00000   0.00000   0.00000
  82        4D+1        0.00000   0.00000   0.00000   0.00000   0.00000
  83        4D-1        0.00000   0.00000   0.00000   0.00000   0.00000
  84        4D+2        0.00000   0.00000   0.00000   0.00000   0.00000
  85        4D-2        0.00000   0.00000   0.00000   0.00000   0.00000
  86 5   H  1S          0.00000  -0.00155   0.02279   0.03056   0.04105
  87        2S          0.00000   0.00081  -0.00890   0.00884   0.01161
  88        3PX         0.00000  -0.00022   0.00189  -0.00030   0.00367
  89        3PY         0.00000  -0.00035   0.00318   0.00348  -0.00036
  90        3PZ         0.00000  -0.00016   0.00139   0.00158   0.00234
  91 6   H  1S          0.00000   0.00000  -0.00001   0.00000  -0.00002
  92        2S          0.00000   0.00001  -0.00037  -0.00016  -0.00067
  93        3PX         0.00000   0.00000   0.00000   0.00000   0.00000
  94        3PY         0.00000   0.00000   0.00000   0.00000   0.00000
  95        3PZ         0.00000   0.00000   0.00000   0.00000   0.00000
                          76        77        78        79        80
  76        2PZ         0.68553
  77        3S          0.00000   0.62144
  78        3PX         0.00000   0.00000   0.29829
  79        3PY         0.00000   0.00000   0.00000   0.30462
  80        3PZ         0.24197   0.00000   0.00000   0.00000   0.34273
  81        4D 0        0.00000   0.00000   0.00000   0.00000   0.00000
  82        4D+1        0.00000   0.00000   0.00000   0.00000   0.00000
  83        4D-1        0.00000   0.00000   0.00000   0.00000   0.00000
  84        4D+2        0.00000   0.00000   0.00000   0.00000   0.00000
  85        4D-2        0.00000   0.00000   0.00000   0.00000   0.00000
  86 5   H  1S          0.01818   0.01665   0.03055   0.04627   0.02019
  87        2S          0.00540  -0.04219   0.01587   0.02190   0.01014
  88        3PX         0.00169   0.00117   0.00115   0.00173   0.00080
  89        3PY         0.00234   0.00227   0.00152   0.00048   0.00112
  90        3PZ         0.00050   0.00097   0.00067   0.00114   0.00232
  91 6   H  1S         -0.00001  -0.00033  -0.00003  -0.00089  -0.00032
  92        2S         -0.00029  -0.00156  -0.00048  -0.00295  -0.00129
  93        3PX         0.00000   0.00003   0.00000   0.00010   0.00003
  94        3PY         0.00000   0.00000   0.00003   0.00004   0.00004
  95        3PZ         0.00000   0.00001   0.00000   0.00003   0.00000
                          81        82        83        84        85
  81        4D 0        0.00037
  82        4D+1        0.00000   0.00037
  83        4D-1        0.00000   0.00000   0.00050
  84        4D+2        0.00000   0.00000   0.00000   0.00057
  85        4D-2        0.00000   0.00000   0.00000   0.00000   0.00071
  86 5   H  1S          0.00007   0.00046   0.00145   0.00020   0.00123
  87        2S          0.00000   0.00004   0.00014   0.00003   0.00011
  88        3PX        -0.00001   0.00000   0.00012   0.00003   0.00000
  89        3PY         0.00001   0.00004   0.00003   0.00002   0.00005
  90        3PZ         0.00012  -0.00004   0.00001   0.00001   0.00005
  91 6   H  1S          0.00000   0.00000   0.00000   0.00000   0.00000
  92        2S          0.00001   0.00000   0.00002   0.00002   0.00000
  93        3PX         0.00000   0.00000   0.00000   0.00000   0.00000
  94        3PY         0.00000   0.00000   0.00000   0.00000   0.00000
  95        3PZ         0.00000   0.00000   0.00000   0.00000   0.00000
                          86        87        88        89        90
  86 5   H  1S          0.20500
  87        2S          0.06275   0.05686
  88        3PX         0.00000   0.00000   0.00109
  89        3PY         0.00000   0.00000   0.00000   0.00126
  90        3PZ         0.00000   0.00000   0.00000   0.00000   0.00103
  91 6   H  1S          0.00000   0.00002   0.00000   0.00000   0.00000
  92        2S          0.00006   0.00024   0.00000   0.00000   0.00000
  93        3PX         0.00000   0.00000   0.00000   0.00000   0.00000
  94        3PY         0.00000  -0.00001   0.00000   0.00000   0.00000
  95        3PZ         0.00000   0.00000   0.00000   0.00000   0.00000
                          91        92        93        94        95
  91 6   H  1S          0.20180
  92        2S          0.06237   0.05917
  93        3PX         0.00000   0.00000   0.00171
  94        3PY         0.00000   0.00000   0.00000   0.00078
  95        3PZ         0.00000   0.00000   0.00000   0.00000   0.00082
     Gross orbital populations:
                           1
   1 1   Ti 1S         -0.30485
   2        2S          1.32865
   3        3S          0.98537
   4        4S          0.12578
   5        5S          0.00567
   6        6S         -0.00240
   7        7PX        -0.07404
   8        7PY        -0.07391
   9        7PZ        -0.07258
  10        8PX         1.39923
  11        8PY         1.39700
  12        8PZ         1.37964
  13        9PX         0.68816
  14        9PY         0.68857
  15        9PZ         0.69841
  16       10PX         0.07420
  17       10PY         0.09696
  18       10PZ         0.09110
  19       11PX         0.01327
  20       11PY         0.01480
  21       11PZ         0.00830
  22       12D 0        0.23889
  23       12D+1        0.24714
  24       12D-1        0.39267
  25       12D+2        0.37632
  26       12D-2        0.34903
  27       13D 0        0.11773
  28       13D+1        0.11635
  29       13D-1        0.10444
  30       13D+2        0.15480
  31       13D-2        0.12505
  32       14D 0        0.02500
  33       14D+1        0.03367
  34       14D-1        0.02702
  35       14D+2        0.03160
  36       14D-2        0.03578
  37       15F 0        0.00589
  38       15F+1        0.00625
  39       15F-1        0.01064
  40       15F+2        0.01144
  41       15F-2        0.00915
  42       15F+3        0.01401
  43       15F-3        0.01455
  44 2   O  1S          1.99704
  45        2S          0.90201
  46        2PX         0.89631
  47        2PY         0.96796
  48        2PZ         1.02443
  49        3S          0.97825
  50        3PX         0.53102
  51        3PY         0.62352
  52        3PZ         0.70184
  53        4D 0        0.00334
  54        4D+1        0.00142
  55        4D-1        0.00165
  56        4D+2        0.00492
  57        4D-2        0.00230
  58 3   O  1S          1.99748
  59        2S          0.93627
  60        2PX         0.91888
  61        2PY         0.94247
  62        2PZ         0.92892
  63        3S          1.02470
  64        3PX         0.56468
  65        3PY         0.54884
  66        3PZ         0.58974
  67        4D 0        0.00302
  68        4D+1        0.00232
  69        4D-1        0.00304
  70        4D+2        0.00425
  71        4D-2        0.00325
  72 4   O  1S          1.99699
  73        2S          0.89477
  74        2PX         0.94695
  75        2PY         0.96542
  76        2PZ         0.98037
  77        3S          0.97165
  78        3PX         0.59342
  79        3PY         0.64399
  80        3PZ         0.68890
  81        4D 0        0.00078
  82        4D+1        0.00180
  83        4D-1        0.00238
  84        4D+2        0.00162
  85        4D-2        0.00340
  86 5   H  1S          0.48700
  87        2S          0.12678
  88        3PX         0.01321
  89        3PY         0.01510
  90        3PZ         0.01217
  91 6   H  1S          0.47951
  92        2S          0.11489
  93        3PX         0.02058
  94        3PY         0.00991
  95        3PZ         0.00979
          Condensed to atoms (all electrons):
              1          2          3          4          5          6
     1  Ti  10.097148   0.240673   0.377216   0.249904  -0.024183  -0.025984
     2  O    0.240673   8.119926   0.005633  -0.010514  -0.000312   0.280595
     3  O    0.377216   0.005633   8.083042   0.002894  -0.000672  -0.000266
     4  O    0.249904  -0.010514   0.002894   8.170766   0.288380  -0.008993
     5  H   -0.024183  -0.000312  -0.000672   0.288380   0.390753   0.000300
     6  H   -0.025984   0.280595  -0.000266  -0.008993   0.000300   0.389022
 Mulliken atomic charges:
              1
     1  Ti   1.085226
     2  O   -0.636000
     3  O   -0.467847
     4  O   -0.692437
     5  H    0.345733
     6  H    0.365326
 Sum of Mulliken atomic charges =   0.00000
 Mulliken charges with hydrogens summed into heavy atoms:
              1
     1  Ti   1.085226
     2  O   -0.270675
     3  O   -0.467847
     4  O   -0.346704
 Sum of Mulliken charges with hydrogens summed into heavy atoms =   0.00000
 APT atomic charges:
              1
     1  Ti   1.285602
     2  O   -0.942908
     3  O   -0.469368
     4  O   -1.142341
     5  H    0.690260
     6  H    0.578755
 Sum of APT charges=   0.00000
 APT Atomic charges with hydrogens summed into heavy atoms:
              1
     1  Ti   1.285602
     2  O   -0.364153
     3  O   -0.469368
     4  O   -0.452082
     5  H    0.000000
     6  H    0.000000
 Sum of APT charges=   0.00000
 Electronic spatial extent (au):  <R**2>=            347.9610
 Charge=              0.0000 electrons
 Dipole moment (field-independent basis, Debye):
    X=             -1.7515    Y=             -0.6080    Z=             -3.5716  Tot=              4.0241
 Quadrupole moment (field-independent basis, Debye-Ang):
   XX=            -32.6106   YY=            -35.4707   ZZ=            -29.7302
   XY=             -3.1716   XZ=             -6.3308   YZ=              0.3109
 Traceless Quadrupole moment (field-independent basis, Debye-Ang):
   XX=             -0.0068   YY=             -2.8668   ZZ=              2.8736
   XY=             -3.1716   XZ=             -6.3308   YZ=              0.3109
 Octapole moment (field-independent basis, Debye-Ang**2):
  XXX=             -4.7022  YYY=             -2.1705  ZZZ=            -10.4380  XYY=            -11.2740
  XXY=              0.5538  XXZ=              2.1329  XZZ=              1.8304  YZZ=              0.6339
  YYZ=             -3.6413  XYZ=              0.5880
 Hexadecapole moment (field-independent basis, Debye-Ang**3):
 XXXX=           -174.7687 YYYY=           -176.2102 ZZZZ=            -60.6141 XXXY=            -36.8140
 XXXZ=            -26.5484 YYYX=            -13.4579 YYYZ=             10.8120 ZZZX=            -17.1307
 ZZZY=             13.5397 XXYY=            -56.1253 XXZZ=            -43.0041 YYZZ=            -39.8289
 XXYZ=              3.9694 YYXZ=            -11.1839 ZZXY=             -4.4793
 N-N= 1.431456182428D+02 E-N=-9.470139165857D+02  KE= 2.507230631155D+02
 Orbital energies and kinetic energies (alpha):
                                 1                 2
   1         O               -19.138471         29.121275
   2         O               -19.128529         29.121302
   3         O               -19.115254         29.125834
   4         O                -2.490188          1.493889
   5         O                -1.533805          2.346316
   6         O                -1.526354          2.413191
   7         O                -1.523872          2.410564
   8         O                -0.974205          2.702506
   9         O                -0.960134          2.791312
  10         O                -0.864869          3.141011
  11         O                -0.495107          2.073765
  12         O                -0.463599          2.080731
  13         O                -0.367471          2.367293
  14         O                -0.354557          2.373618
  15         O                -0.341000          2.231114
  16         O                -0.321930          2.463782
  17         O                -0.321343          2.375763
  18         O                -0.310088          2.378450
  19         O                -0.296204          2.349814
  20         V                -0.097347          2.023870
  21         V                -0.065558          3.408183
  22         V                -0.053247          3.026126
  23         V                -0.011806          2.364331
  24         V                 0.001024          1.501159
  25         V                 0.016332          1.146251
  26         V                 0.023165          2.359424
  27         V                 0.025121          1.288430
  28         V                 0.032843          0.677774
  29         V                 0.047901          1.112871
  30         V                 0.106694          0.623203
  31         V                 0.109187          0.855802
  32         V                 0.118202          0.627598
  33         V                 0.130386          0.492649
  34         V                 0.138244          0.772681
  35         V                 0.144264          0.730444
  36         V                 0.168872          1.096063
  37         V                 0.193681          1.291210
  38         V                 0.235698          1.333251
  39         V                 0.242925          1.546288
  40         V                 0.278168          1.249766
  41         V                 0.508235          1.936170
  42         V                 0.519183          2.233509
  43         V                 0.535222          2.410235
  44         V                 0.559397          2.313451
  45         V                 0.573620          2.394839
  46         V                 0.876927          2.687352
  47         V                 0.878789          2.598940
  48         V                 0.923000          3.106773
  49         V                 0.955366          3.075570
  50         V                 0.958586          3.307036
  51         V                 1.010588          3.575989
  52         V                 1.032338          3.428482
  53         V                 1.056085          3.427231
  54         V                 1.096320          3.438999
  55         V                 1.150849          3.183101
  56         V                 1.181969          2.817421
  57         V                 1.215215          3.200280
  58         V                 1.240564          3.150796
  59         V                 1.269767          2.603582
  60         V                 1.277653          2.622624
  61         V                 1.309116          2.453461
  62         V                 1.329117          3.076986
  63         V                 1.366718          2.920500
  64         V                 1.431073          2.721201
  65         V                 1.472430          3.260556
  66         V                 1.556765          3.364436
  67         V                 1.585730          3.232725
  68         V                 1.613675          2.920151
  69         V                 1.646787          2.857700
  70         V                 1.689054          3.089394
  71         V                 1.738771          3.338651
  72         V                 1.819857          3.063588
  73         V                 1.854801          3.656518
  74         V                 1.906863          2.960304
  75         V                 1.950909          3.390617
  76         V                 2.011012          3.327791
  77         V                 2.155357          3.295130
  78         V                 2.184458          3.426517
  79         V                 2.258877          3.574800
  80         V                 2.348505          3.672902
  81         V                 2.389487          3.724754
  82         V                 2.409446          3.951207
  83         V                 2.507961          3.856729
  84         V                 2.629632          4.330208
  85         V                 2.654445          3.623249
  86         V                 2.666227          3.694507
  87         V                 2.765390          4.023680
  88         V                 2.864827          4.541376
  89         V                 2.892004          4.469604
  90         V                 3.476037          5.522266
  91         V                 3.507561          5.512807
  92         V                24.356420         22.581612
  93         V                24.528506         22.730864
  94         V                24.700392         22.883057
  95         V                35.539478         11.838888
 Total kinetic energy from orbitals= 2.507230631155D+02
  Exact polarizability:   0.000   0.000   0.000   0.000   0.000   0.000
 Approx polarizability:  70.726  21.031  71.685   7.228   1.827  45.216
 No NMR shielding tensors so no spin-rotation constants.
 Leave Link  601 at Wed Oct 26 17:38:13 2016, MaxMem= 3370123264 cpu:       2.3
 (Enter /opt/qcapps/g09/l716.exe)
 Dipole        =-6.89111891D-01-2.39195601D-01-1.40516403D+00
 Polarizability= 0.00000000D+00 0.00000000D+00 0.00000000D+00
                 0.00000000D+00 0.00000000D+00 0.00000000D+00
 -------------------------------------------------------------------
 Center     Atomic                   Forces (Hartrees/Bohr)
 Number     Number              X              Y              Z
 -------------------------------------------------------------------
      1       22          -0.020089597   -0.008011719    0.012249524
      2        8           0.013861961   -0.009287193    0.001655738
      3        8          -0.004105350   -0.000098930   -0.003766557
      4        8           0.005856293    0.017455777   -0.009343708
      5        1          -0.000253788    0.001588663   -0.001236981
      6        1           0.004730482   -0.001646598    0.000441984
 -------------------------------------------------------------------
 Cartesian Forces:  Max     0.020089597 RMS     0.008774129
 Z-matrix is all fixed cartesians, so copy forces.
 Leave Link  716 at Wed Oct 26 17:38:13 2016, MaxMem= 3370123264 cpu:       0.3
 (Enter /opt/qcapps/g09/l9999.exe)

 This type of calculation cannot be archived.


 A politician is a person who can make waves and then
 make you think he's the only one who can save the ship.
 -- Ivern Ball
 Job cpu time:  0 days  0 hours 10 minutes 11.4 seconds.
 File lengths (MBytes):  RWF=     10 Int=      0 D2E=      0 Chk=      2 Scr=      1
 Normal termination of Gaussian 09 at Wed Oct 26 17:38:13 2016.
real 654.64
user 526.50
sys 85.03
