 Running on titan13
 Entering Gaussian System, Link 0=g09
 Initial command:
 /opt/qcapps/g09/l1.exe /work/ohnishi/1477471453/Gau-27750.inp -scrdir=/work/ohnishi/1477471453/
 Entering Link 1 = /opt/qcapps/g09/l1.exe PID=     27751.
  
 Copyright (c) 1988,1990,1992,1993,1995,1998,2003,2009,2011,
            Gaussian, Inc.  All Rights Reserved.
  
 This is part of the Gaussian(R) 09 program.  It is based on
 the Gaussian(R) 03 system (copyright 2003, Gaussian, Inc.),
 the Gaussian(R) 98 system (copyright 1998, Gaussian, Inc.),
 the Gaussian(R) 94 system (copyright 1995, Gaussian, Inc.),
 the Gaussian 92(TM) system (copyright 1992, Gaussian, Inc.),
 the Gaussian 90(TM) system (copyright 1990, Gaussian, Inc.),
 the Gaussian 88(TM) system (copyright 1988, Gaussian, Inc.),
 the Gaussian 86(TM) system (copyright 1986, Carnegie Mellon
 University), and the Gaussian 82(TM) system (copyright 1983,
 Carnegie Mellon University). Gaussian is a federally registered
 trademark of Gaussian, Inc.
  
 This software contains proprietary and confidential information,
 including trade secrets, belonging to Gaussian, Inc.
  
 This software is provided under written license and may be
 used, copied, transmitted, or stored only in accord with that
 written license.
  
 The following legend is applicable only to US Government
 contracts under FAR:
  
                    RESTRICTED RIGHTS LEGEND
  
 Use, reproduction and disclosure by the US Government is
 subject to restrictions as set forth in subparagraphs (a)
 and (c) of the Commercial Computer Software - Restricted
 Rights clause in FAR 52.227-19.
  
 Gaussian, Inc.
 340 Quinnipiac St., Bldg. 40, Wallingford CT 06492
  
  
 ---------------------------------------------------------------
 Warning -- This program may not be used in any manner that
 competes with the business of Gaussian, Inc. or will provide
 assistance to any competitor of Gaussian, Inc.  The licensee
 of this program is prohibited from giving any competitor of
 Gaussian, Inc. access to this program.  By using this program,
 the user acknowledges that Gaussian, Inc. is engaged in the
 business of creating and licensing software in the field of
 computational chemistry and represents and warrants to the
 licensee that it is not a competitor of Gaussian, Inc. and that
 it will not use this program in any manner prohibited above.
 ---------------------------------------------------------------
  

 Cite this work as:
 Gaussian 09, Revision C.01,
 M. J. Frisch, G. W. Trucks, H. B. Schlegel, G. E. Scuseria, 
 M. A. Robb, J. R. Cheeseman, G. Scalmani, V. Barone, B. Mennucci, 
 G. A. Petersson, H. Nakatsuji, M. Caricato, X. Li, H. P. Hratchian, 
 A. F. Izmaylov, J. Bloino, G. Zheng, J. L. Sonnenberg, M. Hada, 
 M. Ehara, K. Toyota, R. Fukuda, J. Hasegawa, M. Ishida, T. Nakajima, 
 Y. Honda, O. Kitao, H. Nakai, T. Vreven, J. A. Montgomery, Jr., 
 J. E. Peralta, F. Ogliaro, M. Bearpark, J. J. Heyd, E. Brothers, 
 K. N. Kudin, V. N. Staroverov, T. Keith, R. Kobayashi, J. Normand, 
 K. Raghavachari, A. Rendell, J. C. Burant, S. S. Iyengar, J. Tomasi, 
 M. Cossi, N. Rega, J. M. Millam, M. Klene, J. E. Knox, J. B. Cross, 
 V. Bakken, C. Adamo, J. Jaramillo, R. Gomperts, R. E. Stratmann, 
 O. Yazyev, A. J. Austin, R. Cammi, C. Pomelli, J. W. Ochterski, 
 R. L. Martin, K. Morokuma, V. G. Zakrzewski, G. A. Voth, 
 P. Salvador, J. J. Dannenberg, S. Dapprich, A. D. Daniels, 
 O. Farkas, J. B. Foresman, J. V. Ortiz, J. Cioslowski, 
 and D. J. Fox, Gaussian, Inc., Wallingford CT, 2010.
 
 ******************************************
 Gaussian 09:  AM64L-G09RevC.01 23-Sep-2011
                26-Oct-2016 
 ******************************************
 %NprocShared=8
 Will use up to    8 processors via shared memory.
 %Mem=51488MB
 ----------------------------------------------------------------------
 #P B3PW91/GenECP SCFCon=7 SCFCyc=250 GFInput GFOldPrint Pseudo=Read Fr
 eq Integral=(Grid=UltraFine) Pop=Regular IOp(1/33=0,2/11=1,3/27=8,6/7=
 3)
 ----------------------------------------------------------------------
 1/10=4,30=1,38=1/1,3;
 2/11=1,12=2,17=6,18=5,40=1/2;
 3/5=7,11=2,16=1,17=8,24=11,25=1,27=8,30=1,71=2,74=-6,75=-5/1,2,3;
 4//1;
 5/5=2,6=7,7=250,38=5,98=1/2;
 8/6=4,10=90,11=11/1;
 11/6=1,8=1,9=11,15=111,16=1/1,2,10;
 10/6=1/2;
 6/7=3,18=1,28=1/1;
 7/8=1,10=1,25=1/1,2,3,16;
 1/10=4,30=1/3;
 99//99;
 Leave Link    1 at Wed Oct 26 17:44:13 2016, MaxMem= 6748635136 cpu:       1.5
 (Enter /opt/qcapps/g09/l101.exe)
 ---------
 Frequency
 ---------
 Charge =  0 Multiplicity = 1
 Symbolic Z-Matrix:
 Ti                    0.00021   0.00018  -0.00046 
 O                    -0.1454    1.47353  -1.02643 
 H                    -0.74395   2.21342  -0.88538 
 O                    -1.46304  -0.18067   1.03414 
 H                    -2.20556  -0.772     0.87714 
 O                     0.17211  -1.42826  -1.08426 
 H                     0.76586  -2.1749   -0.95943 
 O                     1.4369    0.13559   1.07733 
 H                     2.18286   0.73312   0.96734 
 
 NAtoms=      9 NQM=        0 NQMF=       0 NMMI=      9 NMMIF=      0
                NMic=       0 NMicF=      0.
                    Isotopes and Nuclear Properties:
 (Nuclear quadrupole moments (NQMom) in fm**2, nuclear magnetic moments (NMagM)
  in nuclear magnetons)

  Atom         1           2           3           4           5           6           7           8           9
 IAtWgt=          48          16           1          16           1          16           1          16           1
 AtmWgt=  47.9479467  15.9949146   1.0078250  15.9949146   1.0078250  15.9949146   1.0078250  15.9949146   1.0078250
 NucSpn=           0           0           1           0           1           0           1           0           1
 AtZEff=   0.0000000   0.0000000   0.0000000   0.0000000   0.0000000   0.0000000   0.0000000   0.0000000   0.0000000
 NQMom=    0.0000000   0.0000000   0.0000000   0.0000000   0.0000000   0.0000000   0.0000000   0.0000000   0.0000000
 NMagM=    0.0000000   0.0000000   2.7928460   0.0000000   2.7928460   0.0000000   2.7928460   0.0000000   2.7928460
 Leave Link  101 at Wed Oct 26 17:44:13 2016, MaxMem= 6748635136 cpu:       0.9
 (Enter /opt/qcapps/g09/l103.exe)

 GradGradGradGradGradGradGradGradGradGradGradGradGradGradGradGradGradGrad
 Berny optimization.
 Initialization pass.
 Trust Radius=3.00D-01 FncErr=1.00D-07 GrdErr=1.00D-07
 Number of steps in this run=      2 maximum allowed number of steps=      2.
 GradGradGradGradGradGradGradGradGradGradGradGradGradGradGradGradGradGrad

 Leave Link  103 at Wed Oct 26 17:44:13 2016, MaxMem= 6748635136 cpu:       0.2
 (Enter /opt/qcapps/g09/l202.exe)
                          Input orientation:                          
 ---------------------------------------------------------------------
 Center     Atomic      Atomic             Coordinates (Angstroms)
 Number     Number       Type             X           Y           Z
 ---------------------------------------------------------------------
      1         22           0        0.000206    0.000178   -0.000455
      2          8           0       -0.145397    1.473532   -1.026430
      3          1           0       -0.743946    2.213418   -0.885380
      4          8           0       -1.463037   -0.180668    1.034140
      5          1           0       -2.205556   -0.772004    0.877143
      6          8           0        0.172107   -1.428255   -1.084264
      7          1           0        0.765858   -2.174904   -0.959426
      8          8           0        1.436903    0.135587    1.077329
      9          1           0        2.182862    0.733116    0.967342
 ---------------------------------------------------------------------
                    Distance matrix (angstroms):
                    1          2          3          4          5
     1  Ti   0.000000
     2  O    1.801276   0.000000
     3  H    2.497055   0.962074   0.000000
     4  O    1.801159   2.952711   3.151713   0.000000
     5  H    2.496363   3.593087   3.762384   0.962113   0.000000
     6  O    1.801281   2.919678   3.760384   2.952593   3.151359
     7  H    2.497365   3.761112   4.641375   3.594337   3.764361
     8  O    1.801125   2.952892   3.595234   2.917453   3.759163
     9  H    2.497562   3.153432   3.766972   3.759261   4.640230
                    6          7          8          9
     6  O    0.000000
     7  H    0.962086   0.000000
     8  O    2.952591   3.152307   0.000000
     9  H    3.594961   3.765225   0.962077   0.000000
 Stoichiometry    H4O4Ti
 Framework group  C1[X(H4O4Ti)]
 Deg. of freedom    21
 Full point group                 C1      NOp   1
 Largest Abelian subgroup         C1      NOp   1
 Largest concise Abelian subgroup C1      NOp   1
                         Standard orientation:                         
 ---------------------------------------------------------------------
 Center     Atomic      Atomic             Coordinates (Angstroms)
 Number     Number       Type             X           Y           Z
 ---------------------------------------------------------------------
      1         22           0       -0.000062    0.000077   -0.000386
      2          8           0       -1.436655    0.261796   -1.055044
      3          1           0       -2.319158   -0.097122   -0.921056
      4          8           0       -0.262618   -1.432928    1.058732
      5          1           0        0.093705   -2.316555    0.924951
      6          8           0        1.435028   -0.265421   -1.056151
      7          1           0        2.318351    0.092237   -0.924126
      8          8           0        0.264377    1.436529    1.053526
      9          1           0       -0.092592    2.319931    0.920230
 ---------------------------------------------------------------------
 Rotational constants (GHZ):      3.2884758      3.2862239      3.1995987
 Leave Link  202 at Wed Oct 26 17:44:13 2016, MaxMem= 6748635136 cpu:       0.0
 (Enter /opt/qcapps/g09/l301.exe)
 General basis read from cards:  (5D, 7F)
 Centers:   1
 SDDAll
 ****
 Centers:   2  4  6  8  3  5  7  9
 6-31G(d,p)
 ****
 ======================================================================================================
                                       Pseudopotential Parameters
 ======================================================================================================
  Center     Atomic      Valence      Angular      Power
  Number     Number     Electrons     Momentum     of R      Exponent        Coefficient   SO-Coeffient
 ======================================================================================================
    1         22           12
                                      F and up 
                                                     2        1.0000000        0.00000000    0.00000000
                                      S - F
                                                     2       13.0100000      158.24159300    0.00000000
                                                     2        5.8620000       17.51182400    0.00000000
                                      P - F
                                                     2       12.4600000       95.23512700    0.00000000
                                                     2        5.2170000       10.04785600    0.00000000
                                      D - F
                                                     2       15.3500000      -17.56886100    0.00000000
                                                     2        4.9800000       -0.58725600    0.00000000
    2          8
                                   No pseudopotential on this center.
    3          1
                                   No pseudopotential on this center.
    4          8
                                   No pseudopotential on this center.
    5          1
                                   No pseudopotential on this center.
    6          8
                                   No pseudopotential on this center.
    7          1
                                   No pseudopotential on this center.
    8          8
                                   No pseudopotential on this center.
    9          1
                                   No pseudopotential on this center.
 ======================================================================================================
 Ernie: Thresh=  0.10000D-02 Tol=  0.10000D-05 Strict=F.
 AO basis set in the form of general basis input (Overlap normalization):
      1 0
 S   3 1.00       0.000000000000
      0.1078036500D+02  0.1783892477D+01
      0.9717013000D+01 -0.2000689535D+01
      0.4507755000D+01 -0.7563332022D+00
 S   1 1.00       0.000000000000
      0.1246708000D+01  0.1000000000D+01
 S   1 1.00       0.000000000000
      0.5087070000D+00  0.1000000000D+01
 S   1 1.00       0.000000000000
      0.7343800000D-01  0.1000000000D+01
 S   1 1.00       0.000000000000
      0.3004800000D-01  0.1000000000D+01
 S   1 1.00       0.000000000000
      0.1000000000D-01  0.1000000000D+01
 P   2 1.00       0.000000000000
      0.1756638100D+02  0.8860101480D-01
      0.7705844000D+01 -0.1070746179D+01
 P   2 1.00       0.000000000000
      0.3329138000D+01  0.2001088977D+00
      0.1308104000D+01  0.8379855716D+00
 P   1 1.00       0.000000000000
      0.4544820000D+00  0.1000000000D+01
 P   1 1.00       0.000000000000
      0.7177200000D-01  0.1000000000D+01
 P   1 1.00       0.000000000000
      0.2378400000D-01  0.1000000000D+01
 D   4 1.00       0.000000000000
      0.1951919400D+02  0.3581400317D-01
      0.5864613000D+01  0.1723730152D+00
      0.1928038000D+01  0.4251360376D+00
      0.6065630000D+00  0.6025950533D+00
 D   1 1.00       0.000000000000
      0.1639610000D+00  0.1000000000D+01
 D   1 1.00       0.000000000000
      0.5000000000D-01  0.1000000000D+01
 F   1 1.00       0.000000000000
      0.5000000000D+00  0.1000000000D+01
 ****
      2 0
 S   6 1.00       0.000000000000
      0.5484671660D+04  0.1831074430D-02
      0.8252349460D+03  0.1395017220D-01
      0.1880469580D+03  0.6844507810D-01
      0.5296450000D+02  0.2327143360D+00
      0.1689757040D+02  0.4701928980D+00
      0.5799635340D+01  0.3585208530D+00
 SP   3 1.00       0.000000000000
      0.1553961625D+02 -0.1107775495D+00  0.7087426823D-01
      0.3599933586D+01 -0.1480262627D+00  0.3397528391D+00
      0.1013761750D+01  0.1130767015D+01  0.7271585773D+00
 SP   1 1.00       0.000000000000
      0.2700058226D+00  0.1000000000D+01  0.1000000000D+01
 D   1 1.00       0.000000000000
      0.8000000000D+00  0.1000000000D+01
 ****
      3 0
 S   3 1.00       0.000000000000
      0.1873113696D+02  0.3349460434D-01
      0.2825394365D+01  0.2347269535D+00
      0.6401216923D+00  0.8137573261D+00
 S   1 1.00       0.000000000000
      0.1612777588D+00  0.1000000000D+01
 P   1 1.00       0.000000000000
      0.1100000000D+01  0.1000000000D+01
 ****
      4 0
 S   6 1.00       0.000000000000
      0.5484671660D+04  0.1831074430D-02
      0.8252349460D+03  0.1395017220D-01
      0.1880469580D+03  0.6844507810D-01
      0.5296450000D+02  0.2327143360D+00
      0.1689757040D+02  0.4701928980D+00
      0.5799635340D+01  0.3585208530D+00
 SP   3 1.00       0.000000000000
      0.1553961625D+02 -0.1107775495D+00  0.7087426823D-01
      0.3599933586D+01 -0.1480262627D+00  0.3397528391D+00
      0.1013761750D+01  0.1130767015D+01  0.7271585773D+00
 SP   1 1.00       0.000000000000
      0.2700058226D+00  0.1000000000D+01  0.1000000000D+01
 D   1 1.00       0.000000000000
      0.8000000000D+00  0.1000000000D+01
 ****
      5 0
 S   3 1.00       0.000000000000
      0.1873113696D+02  0.3349460434D-01
      0.2825394365D+01  0.2347269535D+00
      0.6401216923D+00  0.8137573261D+00
 S   1 1.00       0.000000000000
      0.1612777588D+00  0.1000000000D+01
 P   1 1.00       0.000000000000
      0.1100000000D+01  0.1000000000D+01
 ****
      6 0
 S   6 1.00       0.000000000000
      0.5484671660D+04  0.1831074430D-02
      0.8252349460D+03  0.1395017220D-01
      0.1880469580D+03  0.6844507810D-01
      0.5296450000D+02  0.2327143360D+00
      0.1689757040D+02  0.4701928980D+00
      0.5799635340D+01  0.3585208530D+00
 SP   3 1.00       0.000000000000
      0.1553961625D+02 -0.1107775495D+00  0.7087426823D-01
      0.3599933586D+01 -0.1480262627D+00  0.3397528391D+00
      0.1013761750D+01  0.1130767015D+01  0.7271585773D+00
 SP   1 1.00       0.000000000000
      0.2700058226D+00  0.1000000000D+01  0.1000000000D+01
 D   1 1.00       0.000000000000
      0.8000000000D+00  0.1000000000D+01
 ****
      7 0
 S   3 1.00       0.000000000000
      0.1873113696D+02  0.3349460434D-01
      0.2825394365D+01  0.2347269535D+00
      0.6401216923D+00  0.8137573261D+00
 S   1 1.00       0.000000000000
      0.1612777588D+00  0.1000000000D+01
 P   1 1.00       0.000000000000
      0.1100000000D+01  0.1000000000D+01
 ****
      8 0
 S   6 1.00       0.000000000000
      0.5484671660D+04  0.1831074430D-02
      0.8252349460D+03  0.1395017220D-01
      0.1880469580D+03  0.6844507810D-01
      0.5296450000D+02  0.2327143360D+00
      0.1689757040D+02  0.4701928980D+00
      0.5799635340D+01  0.3585208530D+00
 SP   3 1.00       0.000000000000
      0.1553961625D+02 -0.1107775495D+00  0.7087426823D-01
      0.3599933586D+01 -0.1480262627D+00  0.3397528391D+00
      0.1013761750D+01  0.1130767015D+01  0.7271585773D+00
 SP   1 1.00       0.000000000000
      0.2700058226D+00  0.1000000000D+01  0.1000000000D+01
 D   1 1.00       0.000000000000
      0.8000000000D+00  0.1000000000D+01
 ****
      9 0
 S   3 1.00       0.000000000000
      0.1873113696D+02  0.3349460434D-01
      0.2825394365D+01  0.2347269535D+00
      0.6401216923D+00  0.8137573261D+00
 S   1 1.00       0.000000000000
      0.1612777588D+00  0.1000000000D+01
 P   1 1.00       0.000000000000
      0.1100000000D+01  0.1000000000D+01
 ****

 ***********************************************************************************************************************************
 *             ATOMIC CENTER             *        ATOMIC ORBITAL       *                     GAUSSIAN FUNCTIONS                    *
 ***********************************************************************************************************************************
 *                                       * FUNCTION    SHELL    SCALE  *                                                           *
 *    ATOM   X-COORD  Y-COORD  Z-COORD   *  NUMBER     TYPE     FACTOR *  EXPONENT    S-COEF      P-COEF      D-COEF      F-COEF   *
 ***********************************************************************************************************************************
 *     Ti    -0.00012  0.00015 -0.00073                                                                                            *
+                                                1   S           1.00                                                               
+                                                                      0.107804D+020.756404D+010.000000D+000.000000D+000.000000D+00 
 *                                                                     0.971701D+01-.784765D+010.000000D+000.000000D+000.000000D+00*
 *                                                                     0.450776D+01-.166761D+010.000000D+000.000000D+000.000000D+00*
 *                                               2   S           1.00                                                              *
+                                                                      0.124671D+010.840879D+000.000000D+000.000000D+000.000000D+00 
 *                                               3   S           1.00                                                              *
+                                                                      0.508707D+000.429300D+000.000000D+000.000000D+000.000000D+00 
 *                                               4   S           1.00                                                              *
+                                                                      0.734380D-010.100543D+000.000000D+000.000000D+000.000000D+00 
 *                                               5   S           1.00                                                              *
+                                                                      0.300480D-010.514365D-010.000000D+000.000000D+000.000000D+00 
 *                                               6   S           1.00                                                              *
+                                                                      0.100000D-010.225377D-010.000000D+000.000000D+000.000000D+00 
 *                                           7-  9   P           1.00                                                              *
+                                                                      0.175664D+020.000000D+000.454184D+010.000000D+000.000000D+00 
 *                                                                     0.770584D+010.000000D+00-.195953D+020.000000D+000.000000D+00*
 *                                          10- 12   P           1.00                                                              *
+                                                                      0.332914D+010.000000D+000.128269D+010.000000D+000.000000D+00 
 *                                                                     0.130810D+010.000000D+000.167101D+010.000000D+000.000000D+00*
 *                                          13- 15   P           1.00                                                              *
+                                                                      0.454482D+000.000000D+000.531907D+000.000000D+000.000000D+00 
 *                                          16- 18   P           1.00                                                              *
+                                                                      0.717720D-010.000000D+000.529522D-010.000000D+000.000000D+00 
 *                                          19- 21   P           1.00                                                              *
+                                                                      0.237840D-010.000000D+000.133136D-010.000000D+000.000000D+00 
 *                                          22- 26   D           1.00                                                              *
+                                                                      0.195192D+020.000000D+000.000000D+000.106849D+020.000000D+00 
 *                                                                     0.586461D+010.000000D+000.000000D+000.627043D+010.000000D+00*
 *                                                                     0.192804D+010.000000D+000.000000D+000.220744D+010.000000D+00*
 *                                                                     0.606563D+000.000000D+000.000000D+000.413493D+000.000000D+00*
 *                                          27- 31   D           1.00                                                              *
+                                                                      0.163961D+000.000000D+000.000000D+000.695353D-010.000000D+00 
 *                                          32- 36   D           1.00                                                              *
+                                                                      0.500000D-010.000000D+000.000000D+000.870176D-020.000000D+00 
 *                                          31- 43   F           1.00                                                              *
+                                                                      0.500000D+000.000000D+000.000000D+000.000000D+000.309483D+00 
 *---------------------------------------------------------------------------------------------------------------------------------*
 *     O     -2.71488  0.49472 -1.99374                                                                                            *
+                                               44   S           1.00                                                               
+                                                                      0.548467D+040.831724D+000.000000D+000.000000D+000.000000D+00 
 *                                                                     0.825235D+030.153082D+010.000000D+000.000000D+000.000000D+00*
 *                                                                     0.188047D+030.247715D+010.000000D+000.000000D+000.000000D+00*
 *                                                                     0.529645D+020.325628D+010.000000D+000.000000D+000.000000D+00*
 *                                                                     0.168976D+020.279289D+010.000000D+000.000000D+000.000000D+00*
 *                                                                     0.579964D+010.954938D+000.000000D+000.000000D+000.000000D+00*
 *                                          45- 48   SP          1.00                                                              *
+                                                                      0.155396D+02-.617934D+000.311694D+010.000000D+000.000000D+00 
 *                                                                     0.359993D+01-.275721D+000.240144D+010.000000D+000.000000D+00*
 *                                                                     0.101376D+010.814208D+000.105436D+010.000000D+000.000000D+00*
 *                                          49- 52   SP          1.00                                                              *
+                                                                      0.270006D+000.266956D+000.277432D+000.000000D+000.000000D+00 
 *                                          53- 57   D           1.00                                                              *
+                                                                      0.800000D+000.000000D+000.000000D+000.111382D+010.000000D+00 
 *---------------------------------------------------------------------------------------------------------------------------------*
 *     H     -4.38257 -0.18353 -1.74054                                                                                            *
+                                               58   S           1.00                                                               
+                                                                      0.187311D+020.214935D+000.000000D+000.000000D+000.000000D+00 
 *                                                                     0.282539D+010.364571D+000.000000D+000.000000D+000.000000D+00*
 *                                                                     0.640122D+000.415051D+000.000000D+000.000000D+000.000000D+00*
 *                                              59   S           1.00                                                              *
+                                                                      0.161278D+000.181381D+000.000000D+000.000000D+000.000000D+00 
 *                                          60- 62   P           1.00                                                              *
+                                                                      0.110000D+010.000000D+000.160576D+010.000000D+000.000000D+00 
 *---------------------------------------------------------------------------------------------------------------------------------*
 *     O     -0.49628 -2.70784  2.00071                                                                                            *
+                                               63   S           1.00                                                               
+                                                                      0.548467D+040.831724D+000.000000D+000.000000D+000.000000D+00 
 *                                                                     0.825235D+030.153082D+010.000000D+000.000000D+000.000000D+00*
 *                                                                     0.188047D+030.247715D+010.000000D+000.000000D+000.000000D+00*
 *                                                                     0.529645D+020.325628D+010.000000D+000.000000D+000.000000D+00*
 *                                                                     0.168976D+020.279289D+010.000000D+000.000000D+000.000000D+00*
 *                                                                     0.579964D+010.954938D+000.000000D+000.000000D+000.000000D+00*
 *                                          64- 67   SP          1.00                                                              *
+                                                                      0.155396D+02-.617934D+000.311694D+010.000000D+000.000000D+00 
 *                                                                     0.359993D+01-.275721D+000.240144D+010.000000D+000.000000D+00*
 *                                                                     0.101376D+010.814208D+000.105436D+010.000000D+000.000000D+00*
 *                                          68- 71   SP          1.00                                                              *
+                                                                      0.270006D+000.266956D+000.277432D+000.000000D+000.000000D+00 
 *                                          72- 76   D           1.00                                                              *
+                                                                      0.800000D+000.000000D+000.000000D+000.111382D+010.000000D+00 
 *---------------------------------------------------------------------------------------------------------------------------------*
 *     H      0.17708 -4.37766  1.74790                                                                                            *
+                                               77   S           1.00                                                               
+                                                                      0.187311D+020.214935D+000.000000D+000.000000D+000.000000D+00 
 *                                                                     0.282539D+010.364571D+000.000000D+000.000000D+000.000000D+00*
 *                                                                     0.640122D+000.415051D+000.000000D+000.000000D+000.000000D+00*
 *                                              78   S           1.00                                                              *
+                                                                      0.161278D+000.181381D+000.000000D+000.000000D+000.000000D+00 
 *                                          79- 81   P           1.00                                                              *
+                                                                      0.110000D+010.000000D+000.160576D+010.000000D+000.000000D+00 
 *---------------------------------------------------------------------------------------------------------------------------------*
 *     O      2.71181 -0.50157 -1.99584                                                                                            *
+                                               82   S           1.00                                                               
+                                                                      0.548467D+040.831724D+000.000000D+000.000000D+000.000000D+00 
 *                                                                     0.825235D+030.153082D+010.000000D+000.000000D+000.000000D+00*
 *                                                                     0.188047D+030.247715D+010.000000D+000.000000D+000.000000D+00*
 *                                                                     0.529645D+020.325628D+010.000000D+000.000000D+000.000000D+00*
 *                                                                     0.168976D+020.279289D+010.000000D+000.000000D+000.000000D+00*
 *                                                                     0.579964D+010.954938D+000.000000D+000.000000D+000.000000D+00*
 *                                          83- 86   SP          1.00                                                              *
+                                                                      0.155396D+02-.617934D+000.311694D+010.000000D+000.000000D+00 
 *                                                                     0.359993D+01-.275721D+000.240144D+010.000000D+000.000000D+00*
 *                                                                     0.101376D+010.814208D+000.105436D+010.000000D+000.000000D+00*
 *                                          87- 90   SP          1.00                                                              *
+                                                                      0.270006D+000.266956D+000.277432D+000.000000D+000.000000D+00 
 *                                          91- 95   D           1.00                                                              *
+                                                                      0.800000D+000.000000D+000.000000D+000.111382D+010.000000D+00 
 *---------------------------------------------------------------------------------------------------------------------------------*
 *     H      4.38105  0.17430 -1.74634                                                                                            *
+                                               96   S           1.00                                                               
+                                                                      0.187311D+020.214935D+000.000000D+000.000000D+000.000000D+00 
 *                                                                     0.282539D+010.364571D+000.000000D+000.000000D+000.000000D+00*
 *                                                                     0.640122D+000.415051D+000.000000D+000.000000D+000.000000D+00*
 *                                              97   S           1.00                                                              *
+                                                                      0.161278D+000.181381D+000.000000D+000.000000D+000.000000D+00 
 *                                          98-100   P           1.00                                                              *
+                                                                      0.110000D+010.000000D+000.160576D+010.000000D+000.000000D+00 
 *---------------------------------------------------------------------------------------------------------------------------------*
 *     O      0.49960  2.71465  1.99087                                                                                            *
+                                              101   S           1.00                                                               
+                                                                      0.548467D+040.831724D+000.000000D+000.000000D+000.000000D+00 
 *                                                                     0.825235D+030.153082D+010.000000D+000.000000D+000.000000D+00*
 *                                                                     0.188047D+030.247715D+010.000000D+000.000000D+000.000000D+00*
 *                                                                     0.529645D+020.325628D+010.000000D+000.000000D+000.000000D+00*
 *                                                                     0.168976D+020.279289D+010.000000D+000.000000D+000.000000D+00*
 *                                                                     0.579964D+010.954938D+000.000000D+000.000000D+000.000000D+00*
 *                                         102-105   SP          1.00                                                              *
+                                                                      0.155396D+02-.617934D+000.311694D+010.000000D+000.000000D+00 
 *                                                                     0.359993D+01-.275721D+000.240144D+010.000000D+000.000000D+00*
 *                                                                     0.101376D+010.814208D+000.105436D+010.000000D+000.000000D+00*
 *                                         106-109   SP          1.00                                                              *
+                                                                      0.270006D+000.266956D+000.277432D+000.000000D+000.000000D+00 
 *                                         110-114   D           1.00                                                              *
+                                                                      0.800000D+000.000000D+000.000000D+000.111382D+010.000000D+00 
 *---------------------------------------------------------------------------------------------------------------------------------*
 *     H     -0.17497  4.38403  1.73898                                                                                            *
+                                              115   S           1.00                                                               
+                                                                      0.187311D+020.214935D+000.000000D+000.000000D+000.000000D+00 
 *                                                                     0.282539D+010.364571D+000.000000D+000.000000D+000.000000D+00*
 *                                                                     0.640122D+000.415051D+000.000000D+000.000000D+000.000000D+00*
 *                                             116   S           1.00                                                              *
+                                                                      0.161278D+000.181381D+000.000000D+000.000000D+000.000000D+00 
 *                                         117-119   P           1.00                                                              *
+                                                                      0.110000D+010.000000D+000.160576D+010.000000D+000.000000D+00 
 ***********************************************************************************************************************************
 There are   119 symmetry adapted basis functions of A   symmetry.
 Integral buffers will be    131072 words long.
 Raffenetti 2 integral format.
 Two-electron integral symmetry is turned on.
   119 basis functions,   215 primitive gaussians,   129 cartesian basis functions
    24 alpha electrons       24 beta electrons
       nuclear repulsion energy       225.0534861807 Hartrees.
 IExCor=  408 DFT=T Ex+Corr=B3PW91 ExCW=0 ScaHFX=  0.200000
 ScaDFX=  0.800000  0.720000  1.000000  0.810000 ScalE2=  1.000000  1.000000
 IRadAn=      5 IRanWt=     -1 IRanGd=            0 ICorTp=0
 NAtoms=    9 NActive=    9 NUniq=    9 SFac= 1.00D+00 NAtFMM=   60 NAOKFM=F Big=F
 Leave Link  301 at Wed Oct 26 17:44:14 2016, MaxMem= 6748635136 cpu:       0.7
 (Enter /opt/qcapps/g09/l302.exe)
 NPDir=0 NMtPBC=     1 NCelOv=     1 NCel=       1 NClECP=     1 NCelD=      1
         NCelK=      1 NCelE2=     1 NClLst=     1 CellRange=     0.0.
 One-electron integrals computed using PRISM.
   1 Symmetry operations used in ECPInt.
 ECPInt:  NShTT=     946 NPrTT=    3836 LenC2=     941 LenP2D=    3058.
 LDataN:  DoStor=T MaxTD1= 6 Len=  172
 NBasis=   119 RedAO= T  NBF=   119
 NBsUse=   119 1.00D-06 NBFU=   119
 Precomputing XC quadrature grid using
 IXCGrd= 2 IRadAn=           5 IRanWt=          -1 IRanGd=           0 AccXCQ= 0.00D+00.
 NRdTot=     784 NPtTot=      219994 NUsed=      225612 NTot=      225644
 NSgBfM=   129   129   129   129   129 NAtAll=     9     9.
 Leave Link  302 at Wed Oct 26 17:44:14 2016, MaxMem= 6748635136 cpu:       2.2
 (Enter /opt/qcapps/g09/l303.exe)
 DipDrv:  MaxL=1.
 Leave Link  303 at Wed Oct 26 17:44:14 2016, MaxMem= 6748635136 cpu:       0.3
 (Enter /opt/qcapps/g09/l401.exe)
 Harris functional with IExCor=  408 diagonalized for initial guess.
 ExpMin= 1.00D-02 ExpMax= 5.48D+03 ExpMxC= 8.25D+02 IAcc=3 IRadAn=         5 AccDes= 0.00D+00
 HarFok:  IExCor=  408 AccDes= 0.00D+00 IRadAn=         5 IDoV= 1
 ScaDFX=  1.000000  1.000000  1.000000  1.000000
 FoFCou: FMM=F IPFlag=           0 FMFlag=      100000 FMFlg1=           0
         NFxFlg=           0 DoJE=T BraDBF=F KetDBF=T FulRan=T
         Omega=  0.000000  0.000000  1.000000  0.000000  0.000000 ICntrl=     500 IOpCl=  0
         NMat0=    1 NMatS0=    1 NMatT0=    0 NMatD0=    1 NMtDS0=    0 NMtDT0=    0
         I1Cent=           4 NGrid=           0.
 Petite list used in FoFCou.
 Harris En= -362.085166259487    
 Initial guess orbital symmetries:
       Occupied  (A) (A) (A) (A) (A) (A) (A) (A) (A) (A) (A) (A)
                 (A) (A) (A) (A) (A) (A) (A) (A) (A) (A) (A) (A)
       Virtual   (A) (A) (A) (A) (A) (A) (A) (A) (A) (A) (A) (A)
                 (A) (A) (A) (A) (A) (A) (A) (A) (A) (A) (A) (A)
                 (A) (A) (A) (A) (A) (A) (A) (A) (A) (A) (A) (A)
                 (A) (A) (A) (A) (A) (A) (A) (A) (A) (A) (A) (A)
                 (A) (A) (A) (A) (A) (A) (A) (A) (A) (A) (A) (A)
                 (A) (A) (A) (A) (A) (A) (A) (A) (A) (A) (A) (A)
                 (A) (A) (A) (A) (A) (A) (A) (A) (A) (A) (A) (A)
                 (A) (A) (A) (A) (A) (A) (A) (A) (A) (A) (A)
 The electronic state of the initial guess is 1-A.
 Leave Link  401 at Wed Oct 26 17:44:15 2016, MaxMem= 6748635136 cpu:       5.5
 (Enter /opt/qcapps/g09/l502.exe)
 Closed shell SCF:
 Requested convergence on RMS density matrix=1.00D-07 within 250 cycles.
 Requested convergence on MAX density matrix=1.00D-05.
 Requested convergence on             energy=1.00D-05.
 No special actions if energy rises.
 Using DIIS extrapolation, IDIIS=  1040.
 Integral symmetry usage will be decided dynamically.
       225518 words used for storage of precomputed grid.
 Keep R1 ints in memory in canonical form, NReq=37440618.
 IEnd=      342299 IEndB=      342299 NGot=  6748635136 MDV=  6713214275
 LenX=  6713214275 LenY=  6713197193
 Symmetry not used in FoFDir.
 MinBra= 0 MaxBra= 3 Meth= 1.
 IRaf=       0 NMat=   1 IRICut=       1 DoRegI=T DoRafI=F ISym2E= 0 JSym2E=0.

 Cycle   1  Pass 1  IDiag  1:
 E= -361.193244250182    
 DIIS: error= 5.63D-02 at cycle   1 NSaved=   1.
 NSaved= 1 IEnMin= 1 EnMin= -361.193244250182     IErMin= 1 ErrMin= 5.63D-02
 ErrMax= 5.63D-02 EMaxC= 1.00D-01 BMatC= 7.79D-01 BMatP= 7.79D-01
 IDIUse=3 WtCom= 4.37D-01 WtEn= 5.63D-01
 Coeff-Com:  0.100D+01
 Coeff-En:   0.100D+01
 Coeff:      0.100D+01
 Gap=    -0.101 Goal=   None    Shift=    0.000
 GapD=   -0.101 DampG=0.250 DampE=0.250 DampFc=0.1250 IDamp=-1.
 Damping current iteration by 1.25D-01
 RMSDP=1.94D-02 MaxDP=7.12D-01              OVMax= 7.44D-01

 Cycle   2  Pass 1  IDiag  1:
 E= -361.281677540047     Delta-E=       -0.088433289865 Rises=F Damp=T
 DIIS: error= 3.06D-02 at cycle   2 NSaved=   2.
 NSaved= 2 IEnMin= 2 EnMin= -361.281677540047     IErMin= 2 ErrMin= 3.06D-02
 ErrMax= 3.06D-02 EMaxC= 1.00D-01 BMatC= 1.87D-01 BMatP= 7.79D-01
 IDIUse=3 WtCom= 6.94D-01 WtEn= 3.06D-01
 Coeff-Com: -0.529D+00 0.153D+01
 Coeff-En:   0.302D+00 0.698D+00
 Coeff:     -0.275D+00 0.127D+01
 Gap=     0.128 Goal=   None    Shift=    0.000
 RMSDP=5.44D-03 MaxDP=9.20D-02 DE=-8.84D-02 OVMax= 7.25D-01

 Cycle   3  Pass 1  IDiag  1:
 E= -361.525904527015     Delta-E=       -0.244226986968 Rises=F Damp=F
 DIIS: error= 3.49D-02 at cycle   3 NSaved=   3.
 NSaved= 3 IEnMin= 3 EnMin= -361.525904527015     IErMin= 2 ErrMin= 3.06D-02
 ErrMax= 3.49D-02 EMaxC= 1.00D-01 BMatC= 2.83D-01 BMatP= 1.87D-01
 IDIUse=2 WtCom= 0.00D+00 WtEn= 1.00D+00
 EnCoef did     3 forward-backward iterations
 Coeff-En:   0.202D+00 0.555D-03 0.797D+00
 Coeff:      0.202D+00 0.555D-03 0.797D+00
 Gap=     0.356 Goal=   None    Shift=    0.000
 RMSDP=1.02D-02 MaxDP=3.36D-01 DE=-2.44D-01 OVMax= 4.37D-01

 Cycle   4  Pass 1  IDiag  1:
 E= -359.224231853667     Delta-E=        2.301672673349 Rises=F Damp=F
 DIIS: error= 1.85D-01 at cycle   4 NSaved=   4.
 NSaved= 4 IEnMin= 3 EnMin= -361.525904527015     IErMin= 2 ErrMin= 3.06D-02
 ErrMax= 1.85D-01 EMaxC= 1.00D-01 BMatC= 4.34D+00 BMatP= 1.87D-01
 IDIUse=2 WtCom= 0.00D+00 WtEn= 1.00D+00
 EnCoef did   100 forward-backward iterations
 Coeff-En:   0.227D+00 0.368D-02 0.659D+00 0.110D+00
 Coeff:      0.227D+00 0.368D-02 0.659D+00 0.110D+00
 Gap=     0.179 Goal=   None    Shift=    0.000
 RMSDP=5.96D-03 MaxDP=2.55D-01 DE= 2.30D+00 OVMax= 2.85D-01

 Cycle   5  Pass 1  IDiag  1:
 E= -361.646753826177     Delta-E=       -2.422521972510 Rises=F Damp=F
 DIIS: error= 2.62D-02 at cycle   5 NSaved=   5.
 NSaved= 5 IEnMin= 5 EnMin= -361.646753826177     IErMin= 5 ErrMin= 2.62D-02
 ErrMax= 2.62D-02 EMaxC= 1.00D-01 BMatC= 1.53D-01 BMatP= 1.87D-01
 IDIUse=3 WtCom= 7.38D-01 WtEn= 2.62D-01
 EnCoef did     2 forward-backward iterations
 Coeff-Com:  0.979D-01-0.665D-01 0.272D+00-0.796D-01 0.776D+00
 Coeff-En:   0.264D-01 0.000D+00 0.330D+00 0.000D+00 0.644D+00
 Coeff:      0.792D-01-0.491D-01 0.287D+00-0.588D-01 0.741D+00
 Gap=     0.283 Goal=   None    Shift=    0.000
 RMSDP=2.35D-03 MaxDP=6.57D-02 DE=-2.42D+00 OVMax= 9.84D-02

 Cycle   6  Pass 1  IDiag  1:
 E= -361.759320616393     Delta-E=       -0.112566790216 Rises=F Damp=F
 DIIS: error= 6.47D-03 at cycle   6 NSaved=   6.
 NSaved= 6 IEnMin= 6 EnMin= -361.759320616393     IErMin= 6 ErrMin= 6.47D-03
 ErrMax= 6.47D-03 EMaxC= 1.00D-01 BMatC= 8.34D-03 BMatP= 1.53D-01
 IDIUse=3 WtCom= 9.35D-01 WtEn= 6.47D-02
 Coeff-Com: -0.840D-01 0.107D+00 0.870D-01-0.192D-01 0.223D+00 0.687D+00
 Coeff-En:   0.000D+00 0.000D+00 0.000D+00 0.000D+00 0.380D-01 0.962D+00
 Coeff:     -0.786D-01 0.998D-01 0.814D-01-0.180D-01 0.211D+00 0.705D+00
 Gap=     0.269 Goal=   None    Shift=    0.000
 RMSDP=3.62D-04 MaxDP=8.50D-03 DE=-1.13D-01 OVMax= 1.58D-02

 Cycle   7  Pass 1  IDiag  1:
 E= -361.765501801240     Delta-E=       -0.006181184846 Rises=F Damp=F
 DIIS: error= 1.08D-03 at cycle   7 NSaved=   7.
 NSaved= 7 IEnMin= 7 EnMin= -361.765501801240     IErMin= 7 ErrMin= 1.08D-03
 ErrMax= 1.08D-03 EMaxC= 1.00D-01 BMatC= 3.13D-04 BMatP= 8.34D-03
 IDIUse=3 WtCom= 9.89D-01 WtEn= 1.08D-02
 Coeff-Com: -0.299D-01 0.248D-01 0.395D-02-0.202D-02 0.529D-01 0.201D+00
 Coeff-Com:  0.749D+00
 Coeff-En:   0.000D+00 0.000D+00 0.000D+00 0.000D+00 0.000D+00 0.000D+00
 Coeff-En:   0.100D+01
 Coeff:     -0.296D-01 0.245D-01 0.391D-02-0.200D-02 0.523D-01 0.199D+00
 Coeff:      0.752D+00
 Gap=     0.268 Goal=   None    Shift=    0.000
 RMSDP=6.36D-05 MaxDP=1.99D-03 DE=-6.18D-03 OVMax= 2.29D-03

 Cycle   8  Pass 1  IDiag  1:
 E= -361.765696261290     Delta-E=       -0.000194460050 Rises=F Damp=F
 DIIS: error= 5.16D-04 at cycle   8 NSaved=   8.
 NSaved= 8 IEnMin= 8 EnMin= -361.765696261290     IErMin= 8 ErrMin= 5.16D-04
 ErrMax= 5.16D-04 EMaxC= 1.00D-01 BMatC= 5.62D-05 BMatP= 3.13D-04
 IDIUse=3 WtCom= 9.95D-01 WtEn= 5.16D-03
 Coeff-Com: -0.689D-02 0.564D-02-0.441D-03-0.435D-03 0.148D-01-0.871D-03
 Coeff-Com:  0.104D+00 0.884D+00
 Coeff-En:   0.000D+00 0.000D+00 0.000D+00 0.000D+00 0.000D+00 0.000D+00
 Coeff-En:   0.000D+00 0.100D+01
 Coeff:     -0.686D-02 0.561D-02-0.439D-03-0.433D-03 0.148D-01-0.866D-03
 Coeff:      0.103D+00 0.885D+00
 Gap=     0.267 Goal=   None    Shift=    0.000
 RMSDP=3.08D-05 MaxDP=8.71D-04 DE=-1.94D-04 OVMax= 1.37D-03

 Cycle   9  Pass 1  IDiag  1:
 E= -361.765736627603     Delta-E=       -0.000040366313 Rises=F Damp=F
 DIIS: error= 1.23D-04 at cycle   9 NSaved=   9.
 NSaved= 9 IEnMin= 9 EnMin= -361.765736627603     IErMin= 9 ErrMin= 1.23D-04
 ErrMax= 1.23D-04 EMaxC= 1.00D-01 BMatC= 4.97D-06 BMatP= 5.62D-05
 IDIUse=3 WtCom= 9.99D-01 WtEn= 1.23D-03
 Coeff-Com:  0.543D-03-0.104D-03-0.683D-03-0.342D-04 0.179D-02-0.462D-01
 Coeff-Com: -0.955D-01 0.701D+00 0.439D+00
 Coeff-En:   0.000D+00 0.000D+00 0.000D+00 0.000D+00 0.000D+00 0.000D+00
 Coeff-En:   0.000D+00 0.000D+00 0.100D+01
 Coeff:      0.542D-03-0.104D-03-0.683D-03-0.342D-04 0.179D-02-0.461D-01
 Coeff:     -0.954D-01 0.700D+00 0.440D+00
 Gap=     0.267 Goal=   None    Shift=    0.000
 RMSDP=1.16D-05 MaxDP=2.95D-04 DE=-4.04D-05 OVMax= 4.61D-04

 Cycle  10  Pass 1  IDiag  1:
 E= -361.765740578491     Delta-E=       -0.000003950888 Rises=F Damp=F
 DIIS: error= 3.02D-06 at cycle  10 NSaved=  10.
 NSaved=10 IEnMin=10 EnMin= -361.765740578491     IErMin=10 ErrMin= 3.02D-06
 ErrMax= 3.02D-06 EMaxC= 1.00D-01 BMatC= 2.07D-09 BMatP= 4.97D-06
 IDIUse=1 WtCom= 1.00D+00 WtEn= 0.00D+00
 Coeff-Com:  0.394D-04-0.108D-04 0.655D-04-0.137D-04-0.565D-04 0.915D-03
 Coeff-Com:  0.330D-02-0.271D-01 0.333D-02 0.102D+01
 Coeff:      0.394D-04-0.108D-04 0.655D-04-0.137D-04-0.565D-04 0.915D-03
 Coeff:      0.330D-02-0.271D-01 0.333D-02 0.102D+01
 Gap=     0.267 Goal=   None    Shift=    0.000
 RMSDP=5.30D-07 MaxDP=1.28D-05 DE=-3.95D-06 OVMax= 2.94D-05

 Cycle  11  Pass 1  IDiag  1:
 E= -361.765740581664     Delta-E=       -0.000000003173 Rises=F Damp=F
 DIIS: error= 5.56D-07 at cycle  11 NSaved=  11.
 NSaved=11 IEnMin=11 EnMin= -361.765740581664     IErMin=11 ErrMin= 5.56D-07
 ErrMax= 5.56D-07 EMaxC= 1.00D-01 BMatC= 3.27D-11 BMatP= 2.07D-09
 IDIUse=1 WtCom= 1.00D+00 WtEn= 0.00D+00
 Coeff-Com: -0.623D-05 0.433D-05 0.159D-04-0.822D-06-0.442D-04 0.819D-03
 Coeff-Com:  0.190D-02-0.143D-01-0.882D-02 0.221D-01 0.998D+00
 Coeff:     -0.623D-05 0.433D-05 0.159D-04-0.822D-06-0.442D-04 0.819D-03
 Coeff:      0.190D-02-0.143D-01-0.882D-02 0.221D-01 0.998D+00
 Gap=     0.267 Goal=   None    Shift=    0.000
 RMSDP=9.79D-08 MaxDP=2.32D-06 DE=-3.17D-09 OVMax= 5.61D-06

 SCF Done:  E(RB3PW91) =  -361.765740582     A.U. after   11 cycles
             Convg  =    0.9786D-07             -V/T =  2.1094
 KE= 3.260889628151D+02 PE=-1.290514399821D+03 EE= 3.776062102434D+02
 Leave Link  502 at Wed Oct 26 17:44:24 2016, MaxMem= 6748635136 cpu:      63.9
 (Enter /opt/qcapps/g09/l801.exe)
 Range of M.O.s used for correlation:     1   119
 NBasis=   119 NAE=    24 NBE=    24 NFC=     0 NFV=     0
 NROrb=    119 NOA=    24 NOB=    24 NVA=    95 NVB=    95
 Leave Link  801 at Wed Oct 26 17:44:24 2016, MaxMem= 6748635136 cpu:       0.3
 (Enter /opt/qcapps/g09/l1101.exe)
 Using compressed storage, NAtomX=     9.
 Will process  10 centers per pass.
   1 Symmetry operations used in ECPInt.
 ECPInt:  NShTT=     946 NPrTT=    3836 LenC2=     941 LenP2D=    3058.
 LDataN:  DoStor=T MaxTD1= 7 Len=  274
 Leave Link 1101 at Wed Oct 26 17:44:25 2016, MaxMem= 6748635136 cpu:       3.1
 (Enter /opt/qcapps/g09/l1102.exe)
 Symmetrizing basis deriv contribution to polar:
 IMax=3 JMax=2 DiffMx= 0.00D+00
 Leave Link 1102 at Wed Oct 26 17:44:25 2016, MaxMem= 6748635136 cpu:       0.4
 (Enter /opt/qcapps/g09/l1110.exe)
 Forming Gx(P) for the SCF density, NAtomX=     9.
 Integral derivatives from FoFDir/FoFCou, PRISM(SPDF).
 Do as many integral derivatives as possible in FoFDir.
 G2DrvN: MDV=    6748634960.
 G2DrvN: will do    10 centers at a time, making    1 passes doing MaxLOS=3.
 Calling FoFCou, ICntrl=  3107 FMM=F I1Cent=   0 AccDes= 0.00D+00.
 FoFCou: FMM=F IPFlag=           0 FMFlag=      100000 FMFlg1=           0
         NFxFlg=           0 DoJE=F BraDBF=F KetDBF=F FulRan=T
         Omega=  0.000000  0.000000  1.000000  0.000000  0.000000 ICntrl=    3107 IOpCl=  0
         NMat0=    1 NMatS0=    1 NMatT0=    0 NMatD0=    1 NMtDS0=    0 NMtDT0=    0
         I1Cent=           0 NGrid=           0.
 Symmetry not used in FoFCou.
 FoFDir/FoFCou used for L=0 through L=3.
 End of G2Drv Frequency-dependent properties file   721 does not exist.
 End of G2Drv Frequency-dependent properties file   722 does not exist.
 Leave Link 1110 at Wed Oct 26 17:44:37 2016, MaxMem= 6748635136 cpu:      95.3
 (Enter /opt/qcapps/g09/l1002.exe)
 Minotr:  Closed shell wavefunction.
          IDoAtm=111111111
          Direct CPHF calculation.
          Differentiating once with respect to electric field.
                with respect to dipole field.
          Differentiating once with respect to nuclear coordinates.
          Requested convergence is 1.0D-08 RMS, and 1.0D-07 maximum.
          Secondary convergence is 1.0D-12 RMS, and 1.0D-12 maximum.
          NewPWx=T KeepS1=F KeepF1=F KeepIn=T MapXYZ=F SortEE=F KeepMc=T.
          MDV=    6748635042 using IRadAn=       1.
 Generate precomputed XC quadrature information.
          Keep R1 ints in memory in canonical form, NReq=37102209.
 Symmetry not used in FoFDir.
 MinBra= 0 MaxBra= 3 Meth= 1.
 IRaf=       0 NMat=   1 IRICut=       1 DoRegI=T DoRafI=F ISym2E= 0 JSym2E=0.
          Solving linear equations simultaneously, MaxMat=       0.
          There are    30 degrees of freedom in the 1st order CPHF.  IDoFFX=5.
     27 vectors produced by pass  0 Test12= 7.60D-15 3.33D-09 XBig12= 4.10D+01 2.78D+00.
 AX will form    27 AO Fock derivatives at one time.
     27 vectors produced by pass  1 Test12= 7.60D-15 3.33D-09 XBig12= 1.22D+01 9.40D-01.
     27 vectors produced by pass  2 Test12= 7.60D-15 3.33D-09 XBig12= 1.46D-01 8.02D-02.
     27 vectors produced by pass  3 Test12= 7.60D-15 3.33D-09 XBig12= 1.51D-03 8.87D-03.
     27 vectors produced by pass  4 Test12= 7.60D-15 3.33D-09 XBig12= 6.34D-06 5.51D-04.
     27 vectors produced by pass  5 Test12= 7.60D-15 3.33D-09 XBig12= 1.86D-08 2.85D-05.
     14 vectors produced by pass  6 Test12= 7.60D-15 3.33D-09 XBig12= 2.78D-11 1.26D-06.
      3 vectors produced by pass  7 Test12= 7.60D-15 3.33D-09 XBig12= 4.63D-14 4.26D-08.
 Inverted reduced A of dimension   179 with in-core refinement.
 FullF1:  Do perturbations    1 to     3.
 Isotropic polarizability for W=    0.000000       45.90 Bohr**3.
 End of Minotr Frequency-dependent properties file   721 does not exist.
 End of Minotr Frequency-dependent properties file   722 does not exist.
 Leave Link 1002 at Wed Oct 26 17:44:55 2016, MaxMem= 6748635136 cpu:     141.0
 (Enter /opt/qcapps/g09/l601.exe)
 Copying SCF densities to generalized density rwf, IOpCl= 0 IROHF=0.

 **********************************************************************

            Population analysis using the SCF density.

 **********************************************************************

 Orbital symmetries:
       Occupied  (A) (A) (A) (A) (A) (A) (A) (A) (A) (A) (A) (A)
                 (A) (A) (A) (A) (A) (A) (A) (A) (A) (A) (A) (A)
       Virtual   (A) (A) (A) (A) (A) (A) (A) (A) (A) (A) (A) (A)
                 (A) (A) (A) (A) (A) (A) (A) (A) (A) (A) (A) (A)
                 (A) (A) (A) (A) (A) (A) (A) (A) (A) (A) (A) (A)
                 (A) (A) (A) (A) (A) (A) (A) (A) (A) (A) (A) (A)
                 (A) (A) (A) (A) (A) (A) (A) (A) (A) (A) (A) (A)
                 (A) (A) (A) (A) (A) (A) (A) (A) (A) (A) (A) (A)
                 (A) (A) (A) (A) (A) (A) (A) (A) (A) (A) (A) (A)
                 (A) (A) (A) (A) (A) (A) (A) (A) (A) (A) (A)
 The electronic state is 1-A.
 Alpha  occ. eigenvalues --  -19.13533 -19.13530 -19.13529 -19.13527  -2.50022
 Alpha  occ. eigenvalues --   -1.53595  -1.53317  -1.53315  -0.97916  -0.96773
 Alpha  occ. eigenvalues --   -0.96718  -0.96714  -0.49281  -0.48891  -0.48890
 Alpha  occ. eigenvalues --   -0.48388  -0.36726  -0.35912  -0.35275  -0.34034
 Alpha  occ. eigenvalues --   -0.34028  -0.31570  -0.31560  -0.31410
 Alpha virt. eigenvalues --   -0.04714  -0.04170  -0.01506  -0.01070  -0.01064
 Alpha virt. eigenvalues --    0.00784   0.02054   0.02063   0.04087   0.04359
 Alpha virt. eigenvalues --    0.08839   0.12872   0.13689   0.13694   0.14339
 Alpha virt. eigenvalues --    0.17230   0.17236   0.20167   0.21865   0.24235
 Alpha virt. eigenvalues --    0.24982   0.24988   0.29148   0.51175   0.52350
 Alpha virt. eigenvalues --    0.52359   0.56945   0.57695   0.87381   0.87386
 Alpha virt. eigenvalues --    0.87915   0.88144   0.93416   0.95526   0.95537
 Alpha virt. eigenvalues --    1.00754   1.01534   1.03089   1.03117   1.11072
 Alpha virt. eigenvalues --    1.13761   1.13804   1.14476   1.16602   1.21669
 Alpha virt. eigenvalues --    1.21681   1.25047   1.32292   1.38473   1.38524
 Alpha virt. eigenvalues --    1.44655   1.45921   1.49921   1.49957   1.59885
 Alpha virt. eigenvalues --    1.61660   1.61674   1.63179   1.65590   1.65646
 Alpha virt. eigenvalues --    1.68569   1.76319   1.80615   1.91468   1.95046
 Alpha virt. eigenvalues --    1.95072   2.02074   2.11511   2.13237   2.18548
 Alpha virt. eigenvalues --    2.18583   2.36262   2.40155   2.40180   2.42854
 Alpha virt. eigenvalues --    2.45641   2.52240   2.52269   2.54609   2.65084
 Alpha virt. eigenvalues --    2.65121   2.68422   2.68992   2.82489   2.83544
 Alpha virt. eigenvalues --    2.83555   3.02468   3.47690   3.49378   3.49397
 Alpha virt. eigenvalues --    3.50197  24.58360  24.58385  24.59222  35.57217
     Molecular Orbital Coefficients:
                           1         2         3         4         5
                           O         O         O         O         O
     Eigenvalues --   -19.13533 -19.13530 -19.13529 -19.13527  -2.50022
   1 1   Ti 1S         -0.00025  -0.00010  -0.00009  -0.00006   0.39813
   2        2S         -0.00133  -0.00051  -0.00046  -0.00034   0.72657
   3        3S          0.00097   0.00037   0.00034   0.00025   0.50998
   4        4S          0.01021   0.00393   0.00353   0.00259   0.00626
   5        5S         -0.00412  -0.00159  -0.00143  -0.00105  -0.00334
   6        6S          0.00089   0.00034   0.00031   0.00023   0.00092
   7        7PX         0.00001  -0.00002   0.00006  -0.00011   0.00000
   8        7PY         0.00004  -0.00012   0.00001   0.00003   0.00000
   9        7PZ        -0.00005   0.00000   0.00010   0.00005   0.00000
  10        8PX         0.00007  -0.00010   0.00033  -0.00058   0.00000
  11        8PY         0.00020  -0.00063   0.00003   0.00014   0.00000
  12        8PZ        -0.00026   0.00001   0.00054   0.00027   0.00000
  13        9PX        -0.00021   0.00028  -0.00095   0.00167   0.00000
  14        9PY        -0.00057   0.00182  -0.00008  -0.00042   0.00000
  15        9PZ         0.00077  -0.00002  -0.00160  -0.00080  -0.00001
  16       10PX        -0.00069   0.00116  -0.00264   0.00455   0.00000
  17       10PY        -0.00152   0.00498  -0.00004  -0.00152   0.00000
  18       10PZ         0.00208  -0.00006  -0.00432  -0.00217   0.00000
  19       11PX         0.00009  -0.00006   0.00055  -0.00101   0.00000
  20       11PY         0.00034  -0.00109   0.00011   0.00015   0.00000
  21       11PZ        -0.00051   0.00002   0.00106   0.00053   0.00000
  22       12D 0        0.00001   0.00000   0.00000   0.00000   0.00123
  23       12D+1        0.00000   0.00006   0.00014  -0.00028   0.00000
  24       12D-1       -0.00010   0.00029  -0.00007   0.00004   0.00000
  25       12D+2       -0.00011   0.00000   0.00023   0.00012  -0.00001
  26       12D-2        0.00004   0.00000  -0.00008  -0.00004   0.00000
  27       13D 0       -0.00023  -0.00009  -0.00008  -0.00006  -0.00064
  28       13D+1        0.00010   0.00014   0.00109  -0.00208   0.00000
  29       13D-1       -0.00072   0.00222  -0.00034  -0.00006   0.00000
  30       13D+2       -0.00093   0.00002   0.00195   0.00098   0.00000
  31       13D-2        0.00029  -0.00001  -0.00060  -0.00031   0.00000
  32       14D 0        0.00036   0.00014   0.00012   0.00009   0.00025
  33       14D+1        0.00003   0.00008   0.00040  -0.00077   0.00000
  34       14D-1       -0.00027   0.00082  -0.00014   0.00000   0.00000
  35       14D+2       -0.00007   0.00000   0.00015   0.00007   0.00000
  36       14D-2        0.00019   0.00000  -0.00039  -0.00020   0.00000
  37       15F 0       -0.00003   0.00000   0.00006   0.00003   0.00000
  38       15F+1        0.00001  -0.00001   0.00007  -0.00012   0.00000
  39       15F-1        0.00004  -0.00013   0.00001   0.00002   0.00000
  40       15F+2       -0.00033  -0.00013  -0.00012  -0.00009  -0.00085
  41       15F-2       -0.00006  -0.00002  -0.00002  -0.00002   0.00039
  42       15F+3       -0.00002   0.00004  -0.00005   0.00008   0.00000
  43       15F-3        0.00003  -0.00009  -0.00001   0.00005   0.00000
  44 2   O  1S          0.26484   0.21091   0.88416  -0.30618  -0.00291
  45        2S          0.00791   0.00617   0.02560  -0.00873   0.00464
  46        2PX        -0.00017  -0.00020  -0.00083   0.00036   0.00418
  47        2PY        -0.00027  -0.00010  -0.00073   0.00021  -0.00088
  48        2PZ         0.00032   0.00021   0.00068  -0.00029   0.00326
  49        3S         -0.00418  -0.00306  -0.01273   0.00400   0.00535
  50        3PX        -0.00098  -0.00029  -0.00206   0.00048   0.00306
  51        3PY         0.00036  -0.00008   0.00043   0.00004  -0.00057
  52        3PZ        -0.00094  -0.00047  -0.00143   0.00060   0.00213
  53        4D 0       -0.00013  -0.00011  -0.00048   0.00014   0.00009
  54        4D+1       -0.00020  -0.00011  -0.00046   0.00021   0.00142
  55        4D-1        0.00006  -0.00010   0.00002   0.00001  -0.00032
  56        4D+2        0.00012   0.00010   0.00035  -0.00024   0.00088
  57        4D-2        0.00016   0.00018   0.00062  -0.00021  -0.00041
  58 3   H  1S         -0.00029  -0.00032  -0.00110   0.00032   0.00020
  59        2S          0.00014   0.00083   0.00046   0.00041   0.00029
  60        3PX        -0.00046  -0.00033  -0.00161   0.00062   0.00007
  61        3PY        -0.00023  -0.00016  -0.00071   0.00025   0.00004
  62        3PZ         0.00012   0.00012   0.00031  -0.00011  -0.00002
  63 4   O  1S          0.84157  -0.50116  -0.15844  -0.07485  -0.00291
  64        2S          0.02455  -0.01433  -0.00450  -0.00208   0.00464
  65        2PX         0.00070  -0.00037  -0.00016   0.00002   0.00089
  66        2PY        -0.00074   0.00056   0.00015   0.00011   0.00417
  67        2PZ        -0.00073   0.00040   0.00002   0.00001  -0.00328
  68        3S         -0.01238   0.00676   0.00227   0.00091   0.00535
  69        3PX        -0.00050   0.00004   0.00015  -0.00022   0.00057
  70        3PY        -0.00212   0.00089   0.00041  -0.00018   0.00305
  71        3PZ         0.00171  -0.00077   0.00009   0.00011  -0.00213
  72        4D 0       -0.00045   0.00026   0.00011   0.00005   0.00010
  73        4D+1        0.00002   0.00001  -0.00004   0.00011  -0.00032
  74        4D-1        0.00048  -0.00029  -0.00003   0.00000  -0.00142
  75        4D+2       -0.00034   0.00030   0.00000   0.00002  -0.00087
  76        4D-2       -0.00059   0.00035   0.00011   0.00009   0.00041
  77 5   H  1S         -0.00105   0.00057   0.00021   0.00017   0.00020
  78        2S          0.00073   0.00033   0.00007  -0.00066   0.00029
  79        3PX         0.00067  -0.00040  -0.00012  -0.00004  -0.00004
  80        3PY        -0.00150   0.00098   0.00030   0.00010   0.00007
  81        3PZ        -0.00033   0.00017   0.00002   0.00004   0.00002
  82 6   O  1S          0.20544   0.13199   0.23129   0.93647  -0.00291
  83        2S          0.00619   0.00393   0.00679   0.02707   0.00464
  84        2PX         0.00013   0.00007   0.00017   0.00092  -0.00418
  85        2PY         0.00018   0.00020   0.00020   0.00074   0.00090
  86        2PZ         0.00028   0.00012   0.00012   0.00076   0.00326
  87        3S         -0.00329  -0.00216  -0.00362  -0.01328   0.00535
  88        3PX         0.00067   0.00071   0.00063   0.00204  -0.00306
  89        3PY        -0.00019  -0.00037  -0.00020  -0.00034   0.00058
  90        3PZ        -0.00082  -0.00039  -0.00025  -0.00162   0.00213
  91        4D 0       -0.00009  -0.00007  -0.00015  -0.00050   0.00009
  92        4D+1        0.00016   0.00010   0.00007   0.00052  -0.00142
  93        4D-1        0.00000  -0.00012   0.00001   0.00000   0.00033
  94        4D+2        0.00009   0.00003   0.00000   0.00044   0.00087
  95        4D-2        0.00014   0.00006   0.00018   0.00066  -0.00041
  96 7   H  1S         -0.00026  -0.00011  -0.00036  -0.00114   0.00020
  97        2S          0.00055  -0.00040   0.00074   0.00028   0.00029
  98        3PX         0.00032   0.00026   0.00036   0.00173  -0.00007
  99        3PY         0.00017   0.00012   0.00018   0.00075  -0.00004
 100        3PZ         0.00012   0.00003   0.00008   0.00034  -0.00002
 101 8   O  1S          0.41177   0.82282  -0.36023  -0.11732  -0.00291
 102        2S          0.01217   0.02382  -0.01030  -0.00334   0.00464
 103        2PX        -0.00038  -0.00066   0.00024   0.00016  -0.00089
 104        2PY         0.00030   0.00081  -0.00039  -0.00011  -0.00418
 105        2PZ        -0.00036  -0.00072   0.00020   0.00003  -0.00326
 106        3S         -0.00641  -0.01167   0.00498   0.00169   0.00535
 107        3PX         0.00041   0.00032   0.00003  -0.00023  -0.00057
 108        3PY         0.00127   0.00185  -0.00054  -0.00045  -0.00306
 109        3PZ         0.00093   0.00161  -0.00024  -0.00001  -0.00212
 110        4D 0       -0.00023  -0.00042   0.00021   0.00007   0.00009
 111        4D+1       -0.00003  -0.00001  -0.00007   0.00009   0.00032
 112        4D-1       -0.00022  -0.00049   0.00014   0.00005   0.00142
 113        4D+2       -0.00010  -0.00043   0.00012   0.00002  -0.00088
 114        4D-2       -0.00029  -0.00057   0.00028   0.00006   0.00041
 115 9   H  1S         -0.00054  -0.00097   0.00051   0.00010   0.00020
 116        2S          0.00074   0.00007  -0.00052   0.00052   0.00030
 117        3PX        -0.00033  -0.00066   0.00027   0.00010   0.00004
 118        3PY         0.00069   0.00153  -0.00064  -0.00025  -0.00007
 119        3PZ        -0.00017  -0.00031   0.00012   0.00000   0.00002
                           6         7         8         9        10
                           O         O         O         O         O
     Eigenvalues --    -1.53595  -1.53317  -1.53315  -0.97916  -0.96773
   1 1   Ti 1S          0.00000   0.00000   0.00000  -0.05292   0.00003
   2        2S          0.00000   0.00001   0.00000  -0.12295   0.00007
   3        3S         -0.00001   0.00001   0.00000  -0.05059   0.00003
   4        4S          0.00000   0.00000   0.00000  -0.01044  -0.00002
   5        5S          0.00000   0.00000   0.00000   0.02126  -0.00001
   6        6S          0.00000   0.00000   0.00000  -0.00300   0.00000
   7        7PX         0.00016  -0.00268   0.10472   0.00001  -0.00018
   8        7PY         0.00026   0.10472   0.00268   0.00002   0.00026
   9        7PZ         0.10487  -0.00026  -0.00017  -0.00003  -0.01876
  10        8PX         0.00110  -0.01829   0.71413   0.00010  -0.00129
  11        8PY         0.00180   0.71413   0.01828   0.00011   0.00184
  12        8PZ         0.71489  -0.00177  -0.00115  -0.00020  -0.13316
  13        9PX         0.00061  -0.01013   0.39339   0.00005  -0.00061
  14        9PY         0.00099   0.39340   0.01013   0.00005   0.00087
  15        9PZ         0.39377  -0.00097  -0.00064  -0.00010  -0.06272
  16       10PX         0.00001   0.00015   0.00764   0.00000  -0.00007
  17       10PY         0.00001   0.00765  -0.00014  -0.00001   0.00018
  18       10PZ         0.00483  -0.00002  -0.00001  -0.00004  -0.01388
  19       11PX         0.00000   0.00013  -0.00119  -0.00001   0.00009
  20       11PY         0.00000  -0.00119  -0.00013  -0.00001  -0.00012
  21       11PZ        -0.00111   0.00000   0.00000   0.00002   0.00994
  22       12D 0        0.00000  -0.00001   0.00000  -0.00292   0.00006
  23       12D+1        0.00000   0.00212  -0.00352   0.00003  -0.00068
  24       12D-1       -0.00001   0.00350   0.00212  -0.00005  -0.00077
  25       12D+2       -0.00370   0.00000   0.00000  -0.00002  -0.05627
  26       12D-2        0.00221   0.00000  -0.00001   0.00001   0.01682
  27       13D 0        0.00000  -0.00002   0.00000  -0.00445  -0.00001
  28       13D+1        0.00000   0.00191  -0.00535  -0.00001   0.00000
  29       13D-1        0.00000   0.00535   0.00191  -0.00001  -0.00002
  30       13D+2       -0.00466   0.00000   0.00000  -0.00002  -0.00537
  31       13D-2        0.00127   0.00001  -0.00001   0.00001  -0.00244
  32       14D 0        0.00000   0.00000   0.00000  -0.00131   0.00000
  33       14D+1        0.00000  -0.00079   0.00095   0.00000  -0.00003
  34       14D-1        0.00000  -0.00096  -0.00079  -0.00001  -0.00001
  35       14D+2        0.00175   0.00000   0.00000   0.00001  -0.00307
  36       14D-2       -0.00061   0.00000   0.00000   0.00000  -0.00014
  37       15F 0       -0.00331  -0.00001   0.00000   0.00000  -0.00750
  38       15F+1        0.00000   0.00002   0.00250   0.00000   0.00001
  39       15F-1       -0.00001   0.00251  -0.00001  -0.00003  -0.00007
  40       15F+2       -0.00001   0.00000   0.00001  -0.01141   0.00001
  41       15F-2        0.00000   0.00000   0.00001   0.00279   0.00000
  42       15F+3        0.00000  -0.00183   0.00232  -0.00002   0.00008
  43       15F-3        0.00000  -0.00233  -0.00183  -0.00002   0.00006
  44 2   O  1S          0.01181  -0.00329   0.01642  -0.10866   0.11017
  45        2S         -0.02509   0.00719  -0.03460   0.23594  -0.24145
  46        2PX        -0.01505   0.00402  -0.01561  -0.03326   0.03957
  47        2PY         0.00387   0.00420   0.00518  -0.02296   0.02392
  48        2PZ        -0.00742   0.00361  -0.01724   0.02049  -0.02025
  49        3S         -0.01767   0.00439  -0.02435   0.24612  -0.24879
  50        3PX        -0.00497   0.00151  -0.00245   0.00326   0.00166
  51        3PY         0.00133   0.00364   0.00229  -0.01140   0.00989
  52        3PZ        -0.00051   0.00115  -0.00635   0.01821  -0.01473
  53        4D 0        0.00112   0.00031  -0.00121  -0.00108   0.00098
  54        4D+1       -0.00105   0.00066  -0.00218   0.00250  -0.00215
  55        4D-1        0.00027   0.00101   0.00092  -0.00145   0.00130
  56        4D+2       -0.00142   0.00071  -0.00055   0.00386  -0.00410
  57        4D-2        0.00066   0.00123   0.00061   0.00102  -0.00106
  58 3   H  1S         -0.00216   0.00041  -0.00394   0.08400  -0.08829
  59        2S          0.00026   0.00051   0.00189   0.00849  -0.00900
  60        3PX        -0.00062   0.00009  -0.00137   0.01114  -0.01157
  61        3PY        -0.00004  -0.00005  -0.00029   0.00459  -0.00464
  62        3PZ        -0.00023   0.00009  -0.00020  -0.00168   0.00167
  63 4   O  1S         -0.01181   0.01644   0.00329  -0.10881  -0.11042
  64        2S          0.02508  -0.03463  -0.00719   0.23629   0.24200
  65        2PX         0.00386  -0.00519   0.00420   0.02286   0.02377
  66        2PY         0.01502  -0.01557  -0.00401  -0.03343  -0.03975
  67        2PZ        -0.00747   0.01730   0.00362  -0.02056  -0.02032
  68        3S          0.01766  -0.02437  -0.00439   0.24648   0.24938
  69        3PX         0.00132  -0.00229   0.00364   0.01137   0.00989
  70        3PY         0.00496  -0.00244  -0.00151   0.00318  -0.00174
  71        3PZ        -0.00052   0.00636   0.00116  -0.01829  -0.01482
  72        4D 0       -0.00111  -0.00122  -0.00031  -0.00106  -0.00097
  73        4D+1       -0.00027   0.00092  -0.00102  -0.00145  -0.00131
  74        4D-1       -0.00106   0.00218   0.00066  -0.00250  -0.00215
  75        4D+2       -0.00142   0.00054   0.00071  -0.00387  -0.00412
  76        4D-2        0.00066  -0.00061   0.00123  -0.00102  -0.00106
  77 5   H  1S          0.00215  -0.00395  -0.00042   0.08413   0.08847
  78        2S         -0.00026   0.00189  -0.00050   0.00851   0.00907
  79        3PX        -0.00004   0.00029  -0.00004  -0.00456  -0.00462
  80        3PY         0.00062  -0.00138  -0.00009   0.01117   0.01161
  81        3PZ        -0.00023   0.00020   0.00009   0.00168   0.00167
  82 6   O  1S          0.01179   0.00327  -0.01644  -0.10846   0.10694
  83        2S         -0.02504  -0.00715   0.03464   0.23552  -0.23437
  84        2PX         0.01502   0.00400  -0.01561   0.03326  -0.03850
  85        2PY        -0.00387   0.00419   0.00524   0.02290  -0.02313
  86        2PZ        -0.00741  -0.00362   0.01725   0.02036  -0.01963
  87        3S         -0.01763  -0.00437   0.02438   0.24568  -0.24148
  88        3PX         0.00496   0.00150  -0.00245  -0.00323  -0.00161
  89        3PY        -0.00132   0.00364   0.00231   0.01141  -0.00962
  90        3PZ        -0.00050  -0.00117   0.00635   0.01816  -0.01422
  91        4D 0        0.00112  -0.00032   0.00120  -0.00108   0.00094
  92        4D+1        0.00105   0.00066  -0.00218  -0.00250   0.00208
  93        4D-1       -0.00026   0.00101   0.00093   0.00145  -0.00127
  94        4D+2       -0.00142  -0.00071   0.00054   0.00386  -0.00399
  95        4D-2        0.00066  -0.00123  -0.00062   0.00101  -0.00102
  96 7   H  1S         -0.00215  -0.00041   0.00394   0.08384  -0.08571
  97        2S          0.00025  -0.00051  -0.00190   0.00848  -0.00875
  98        3PX         0.00062   0.00009  -0.00137  -0.01113   0.01124
  99        3PY         0.00004  -0.00005  -0.00029  -0.00456   0.00449
 100        3PZ        -0.00023  -0.00009   0.00020  -0.00165   0.00159
 101 8   O  1S         -0.01184  -0.01642  -0.00327  -0.10862  -0.10636
 102        2S          0.02514   0.03459   0.00715   0.23588   0.23310
 103        2PX        -0.00388  -0.00521   0.00420  -0.02288  -0.02301
 104        2PY        -0.01508  -0.01560  -0.00400   0.03332   0.03832
 105        2PZ        -0.00744  -0.01722  -0.00361  -0.02044  -0.01959
 106        3S          0.01771   0.02434   0.00437   0.24605   0.24018
 107        3PX        -0.00132  -0.00230   0.00364  -0.01139  -0.00951
 108        3PY        -0.00497  -0.00244  -0.00150  -0.00325   0.00159
 109        3PZ        -0.00051  -0.00635  -0.00116  -0.01817  -0.01413
 110        4D 0       -0.00112   0.00120   0.00031  -0.00109  -0.00094
 111        4D+1        0.00026   0.00093  -0.00101   0.00145   0.00125
 112        4D-1        0.00105   0.00218   0.00066   0.00250   0.00206
 113        4D+2       -0.00142  -0.00054  -0.00071  -0.00387  -0.00398
 114        4D-2        0.00066   0.00061  -0.00123  -0.00101  -0.00101
 115 9   H  1S          0.00216   0.00393   0.00041   0.08398   0.08528
 116        2S         -0.00026  -0.00190   0.00050   0.00851   0.00866
 117        3PX         0.00004   0.00028  -0.00005   0.00456   0.00446
 118        3PY        -0.00062  -0.00137  -0.00009  -0.01115  -0.01118
 119        3PZ        -0.00023  -0.00020  -0.00009   0.00167   0.00160
                          11        12        13        14        15
                           O         O         O         O         O
     Eigenvalues --    -0.96718  -0.96714  -0.49281  -0.48891  -0.48890
   1 1   Ti 1S         -0.00003  -0.00003   0.08151  -0.00028   0.00026
   2        2S         -0.00006  -0.00008   0.20410  -0.00071   0.00065
   3        3S         -0.00002  -0.00003   0.08586  -0.00028   0.00027
   4        4S         -0.00003  -0.00001  -0.16938   0.00057  -0.00054
   5        5S          0.00002   0.00001   0.03961  -0.00011   0.00011
   6        6S          0.00000   0.00000  -0.00658   0.00002  -0.00002
   7        7PX        -0.00258  -0.01958   0.00003   0.01430   0.00790
   8        7PY        -0.01957   0.00257   0.00009   0.00789  -0.01429
   9        7PZ        -0.00022   0.00020   0.00003   0.00006  -0.00008
  10        8PX        -0.01828  -0.13897   0.00025   0.10533   0.05858
  11        8PY        -0.13894   0.01825   0.00069   0.05846  -0.10533
  12        8PZ        -0.00153   0.00143   0.00024   0.00046  -0.00060
  13        9PX        -0.00874  -0.06592   0.00008   0.03354   0.01846
  14        9PY        -0.06591   0.00872   0.00022   0.01842  -0.03354
  15        9PZ        -0.00072   0.00067   0.00009   0.00015  -0.00020
  16       10PX        -0.00450  -0.01236  -0.00012  -0.02947  -0.00137
  17       10PY        -0.01234   0.00451  -0.00013  -0.00130   0.02951
  18       10PZ        -0.00017   0.00014  -0.00002  -0.00012   0.00012
  19       11PX         0.00126   0.00961  -0.00001   0.00388   0.00739
  20       11PY         0.00960  -0.00126   0.00004   0.00740  -0.00387
  21       11PZ         0.00012  -0.00011  -0.00002   0.00000  -0.00001
  22       12D 0       -0.00017   0.00004  -0.07435   0.00088  -0.00085
  23       12D+1        0.00893  -0.05552  -0.00050   0.08249   0.21044
  24       12D-1        0.05558   0.00892  -0.00134  -0.21052   0.08259
  25       12D+2       -0.00083   0.00052  -0.00008   0.00098  -0.00060
  26       12D-2        0.00029  -0.00027   0.00007  -0.00056   0.00093
  27       13D 0        0.00000   0.00000  -0.02567   0.00029  -0.00026
  28       13D+1       -0.00034  -0.00023  -0.00015   0.02043   0.06010
  29       13D-1        0.00023  -0.00034  -0.00037  -0.06013   0.02046
  30       13D+2       -0.00006   0.00006  -0.00006   0.00023  -0.00009
  31       13D-2       -0.00004   0.00002   0.00004  -0.00020   0.00027
  32       14D 0       -0.00001   0.00000  -0.00985   0.00006  -0.00006
  33       14D+1        0.00108  -0.00135  -0.00002   0.00218   0.00529
  34       14D-1        0.00136   0.00108  -0.00004  -0.00527   0.00217
  35       14D+2       -0.00004   0.00003  -0.00001  -0.00003   0.00006
  36       14D-2        0.00000   0.00000   0.00002  -0.00005   0.00005
  37       15F 0       -0.00011   0.00007  -0.00003   0.00010  -0.00007
  38       15F+1        0.00030   0.00256   0.00000  -0.01215  -0.01029
  39       15F-1        0.00258  -0.00030  -0.00001  -0.01034   0.01218
  40       15F+2        0.00000   0.00000   0.01715  -0.00007   0.00001
  41       15F-2        0.00001   0.00002  -0.01393   0.00001  -0.00007
  42       15F+3       -0.00186   0.00530   0.00010   0.00479  -0.00860
  43       15F-3       -0.00529  -0.00186   0.00004   0.00861   0.00482
  44 2   O  1S         -0.00124   0.15231   0.02477  -0.02610  -0.02923
  45        2S          0.00278  -0.33371  -0.05249   0.05777   0.06625
  46        2PX        -0.00099   0.05247  -0.25601   0.22436   0.27405
  47        2PY        -0.00232   0.03294  -0.06008   0.08836   0.05445
  48        2PZ         0.00014  -0.02462   0.00153   0.01006   0.01036
  49        3S          0.00281  -0.34510  -0.10085   0.10255   0.11055
  50        3PX        -0.00025   0.00351  -0.14615   0.12199   0.15098
  51        3PY         0.00092   0.01472  -0.03070   0.04655   0.03027
  52        3PZ         0.00026  -0.02305  -0.00400   0.00965   0.00685
  53        4D 0        0.00008   0.00183  -0.00117   0.00223   0.00188
  54        4D+1        0.00018  -0.00350  -0.00630   0.00686   0.00833
  55        4D-1        0.00041   0.00198  -0.00110   0.00180   0.00095
  56        4D+2       -0.00008  -0.00523   0.00022   0.00055  -0.00114
  57        4D-2       -0.00025  -0.00172   0.00617  -0.00329  -0.00676
  58 3   H  1S          0.00177  -0.12048   0.13440  -0.12140  -0.13992
  59        2S         -0.00181  -0.01483   0.07404  -0.07313  -0.08100
  60        3PX         0.00024  -0.01591   0.00711  -0.00721  -0.00688
  61        3PY         0.00001  -0.00644   0.00441  -0.00288  -0.00441
  62        3PZ        -0.00006   0.00232  -0.00220   0.00233   0.00227
  63 4   O  1S          0.15197   0.00369   0.02462  -0.02944   0.02585
  64        2S         -0.33298  -0.00817  -0.05215   0.06670  -0.05723
  65        2PX        -0.03266  -0.00284   0.05922  -0.05427   0.08714
  66        2PY         0.05247   0.00188  -0.25462   0.27614  -0.22245
  67        2PZ         0.02463   0.00059  -0.00145  -0.01069   0.01025
  68        3S         -0.34432  -0.00836  -0.10033   0.11136  -0.10153
  69        3PX        -0.01462   0.00071   0.03021  -0.03017   0.04590
  70        3PY         0.00362   0.00029  -0.14536   0.15215  -0.12085
  71        3PZ         0.02310   0.00059   0.00406  -0.00707   0.00974
  72        4D 0        0.00179  -0.00006  -0.00117   0.00192  -0.00224
  73        4D+1        0.00198  -0.00038  -0.00108   0.00094  -0.00177
  74        4D-1        0.00349   0.00022   0.00628  -0.00841   0.00683
  75        4D+2        0.00521   0.00001  -0.00025   0.00120   0.00049
[...]
    XX                                                                                                   XXX     X XX  XXX           
    XX                                                                                                   XXX     X XX  XXX           
    XX                                                                                                   XXX     X XX  XXX           
    XX                                                                                                   XXX     X XX  XXX           
    XX                                                                                                   XXX     X XX   XX           
    XX                                                                                                   XXX     X XX   XX           
    XX                                                                                                   XXX     X                   
    XX                                                                                                   XXX     X                   
    XX                                                                                                   XXX     X                   
    XX                                                                                                           X                   
    XX                                                                                                           X                   
    XX                                                                                                           X                   
    XX                                                                                                           X                   
    X                                                                                                            X                   
                                                                                                                 X                   
 
 ***** Axes restored to original set *****
 -------------------------------------------------------------------
 Center     Atomic                   Forces (Hartrees/Bohr)
 Number     Number              X              Y              Z
 -------------------------------------------------------------------
      1       22           0.000084404   -0.000013183    0.000089886
      2        8           0.000034488   -0.000073795   -0.000058509
      3        1          -0.000033076    0.000054351    0.000018302
      4        8          -0.000043685    0.000026473   -0.000004574
      5        1          -0.000041422   -0.000038037    0.000005613
      6        8          -0.000054611    0.000068223   -0.000063335
      7        1           0.000030020   -0.000029204    0.000023288
      8        8          -0.000005414   -0.000040776    0.000010842
      9        1           0.000029297    0.000045949   -0.000021512
 -------------------------------------------------------------------
 Cartesian Forces:  Max     0.000089886 RMS     0.000045064
 Z-matrix is all fixed cartesians, so copy forces.
 Force constants in Cartesian coordinates: 
                1             2             3             4             5 
      1  0.453154D+00
      2 -0.683496D-04  0.453253D+00
      3  0.485646D-03  0.695017D-03  0.420229D+00
      4 -0.347901D-01  0.251448D-01 -0.180147D-01  0.233542D+00
      5  0.162734D-01 -0.182372D+00  0.102998D+00 -0.283218D+00  0.508721D+00
      6 -0.100690D-01  0.882437D-01 -0.983703D-01 -0.348308D-01 -0.500724D-01
      7  0.313302D-03  0.125915D-03  0.434151D-02 -0.212737D+00  0.264016D+00
      8  0.901461D-02 -0.139577D-01  0.271957D-02  0.254466D+00 -0.324866D+00
      9 -0.446135D-02  0.175613D-01 -0.241438D-02  0.514983D-01 -0.657825D-01
     10 -0.180644D+00 -0.197151D-01  0.103261D+00  0.977818D-02 -0.173168D-01
     11 -0.279235D-01 -0.358074D-01  0.204177D-01 -0.752165D-02  0.150345D-02
     12  0.881642D-01  0.123745D-01 -0.992012D-01  0.398463D-02  0.942002D-02
     13 -0.137956D-01 -0.903454D-02  0.246897D-02 -0.284740D-03  0.164867D-02
     14 -0.818173D-03  0.303891D-03 -0.424221D-02  0.588835D-03  0.143679D-02
     15  0.176841D-01  0.465198D-02 -0.257729D-02 -0.114265D-02  0.691047D-03
     16 -0.355357D-01  0.265287D-01  0.207599D-01 -0.117418D-03  0.377319D-02
     17  0.184085D-01 -0.174145D+00 -0.105818D+00  0.351958D-02 -0.127005D-01
     18  0.124627D-01 -0.908067D-01 -0.105838D+00  0.721093D-03 -0.927054D-02
     19  0.306366D-03  0.753526D-03 -0.424219D-02  0.609389D-03 -0.188284D-02
     20  0.885531D-02 -0.130809D-01 -0.292935D-02 -0.195734D-03  0.983820D-03
     21  0.491271D-02 -0.180190D-01 -0.329399D-02  0.320039D-03  0.210989D-02
     22 -0.175774D+00 -0.149522D-01 -0.105911D+00  0.201815D-02  0.171427D-01
     23 -0.236363D-01 -0.345168D-01 -0.182210D-01  0.742395D-02  0.963269D-02
     24 -0.912088D-01 -0.996758D-02 -0.105387D+00 -0.513329D-02  0.848176D-02
     25 -0.132343D-01 -0.878272D-02 -0.314959D-02  0.198166D-02 -0.436592D-03
     26 -0.105499D-03  0.322852D-03  0.437972D-02 -0.207815D-03 -0.233948D-02
     27 -0.179702D-01 -0.473321D-02 -0.314636D-02  0.259745D-02  0.142441D-02
                6             7             8             9            10 
      6  0.102873D+00
      7  0.442182D-01  0.212771D+00
      8 -0.542230D-01 -0.262119D+00  0.335981D+00
      9 -0.119387D-01 -0.471288D-01  0.537679D-01  0.163529D-01
     10  0.775058D-02 -0.234251D-02  0.343803D-03  0.145300D-02  0.508904D+00
     11  0.540323D-02  0.192664D-03  0.216725D-02 -0.250048D-02  0.284527D+00
     12 -0.363000D-02 -0.420111D-03 -0.261145D-02 -0.928055D-03 -0.430338D-01
     13 -0.117772D-02  0.355105D-03 -0.311138D-03 -0.728668D-04 -0.327022D+00
     14  0.103000D-03 -0.450469D-03 -0.236225D-03 -0.940864D-04 -0.261452D+00
     15 -0.783475D-03  0.241631D-03  0.164591D-03 -0.670903D-04 -0.730295D-01
     16 -0.989556D-03  0.651416D-03 -0.220968D-03 -0.301417D-03  0.163147D-02
     17  0.808624D-02 -0.176955D-02  0.100525D-02 -0.208816D-02  0.169377D-01
     18  0.171191D-01 -0.150078D-02  0.152443D-02 -0.590031D-03  0.993020D-02
     19  0.145043D-02 -0.245935D-03  0.114070D-03 -0.196554D-03  0.144690D-02
     20 -0.146756D-02  0.105803D-03 -0.182629D-03  0.259098D-04 -0.166052D-02
     21 -0.517072D-03  0.183199D-03 -0.508273D-04  0.479608D-03  0.615947D-03
     22 -0.905427D-02  0.146297D-02 -0.160393D-02 -0.627084D-03 -0.127340D-01
     23  0.437848D-02 -0.536886D-03 -0.261972D-03 -0.114811D-02 -0.346288D-02
     24 -0.401765D-02 -0.299519D-04 -0.123305D-02 -0.825197D-03 -0.911048D-02
     25  0.270222D-02 -0.227744D-03  0.316549D-03 -0.163178D-03  0.982414D-03
     26 -0.451618D-03  0.435309D-03  0.350831D-03  0.258247D-03  0.179910D-02
     27 -0.735321D-03  0.951628D-04 -0.581367D-04 -0.690909D-04  0.216311D-02
               11            12            13            14            15 
     11  0.229568D+00
     12  0.372075D-01  0.106703D+00
     13 -0.252427D+00 -0.610973D-01  0.338035D+00
     14 -0.207776D+00 -0.491865D-01  0.260043D+00  0.207856D+00
     15 -0.565298D-01 -0.146427D-01  0.608730D-01  0.519416D-01  0.191210D-01
     16  0.730154D-02  0.559618D-02  0.212567D-02 -0.109104D-03 -0.252387D-02
     17  0.101474D-01 -0.743254D-02 -0.283430D-03 -0.229375D-02 -0.151076D-02
     18 -0.360160D-02 -0.415042D-02 -0.264429D-02  0.384484D-03 -0.922131D-03
     19 -0.574052D-03  0.649136D-04 -0.231858D-03  0.449761D-03 -0.818616D-04
     20 -0.363325D-03  0.120954D-02  0.307312D-03  0.359166D-03  0.848948D-04
     21  0.115678D-02 -0.708295D-03  0.172986D-03 -0.229221D-03 -0.748397D-04
     22 -0.381906D-02  0.821320D-02  0.100079D-02  0.185689D-02 -0.204774D-02
     23 -0.107092D-03  0.454766D-03  0.169196D-03  0.595360D-03  0.331335D-03
     24 -0.127543D-02  0.171552D-01  0.152592D-02  0.153173D-02 -0.539339D-03
     25  0.243968D-03 -0.147189D-02 -0.182215D-03 -0.108813D-03  0.269102D-04
     26  0.667905D-03 -0.143586D-02 -0.112523D-03 -0.244427D-03  0.175066D-03
     27 -0.277981D-03 -0.597970D-03 -0.486704D-04 -0.208808D-03  0.485816D-03
               16            17            18            19            20 
     16  0.230985D+00
     17 -0.285577D+00  0.504983D+00
     18  0.259673D-01  0.597081D-01  0.109131D+00
     19 -0.209459D+00  0.263902D+00 -0.380713D-01  0.209526D+00
     20  0.254987D+00 -0.330610D+00  0.473880D-01 -0.262438D+00  0.341181D+00
     21 -0.457301D-01  0.592036D-01 -0.943284D-02  0.409306D-01 -0.468740D-01
     22  0.100625D-01 -0.167521D-01 -0.812608D-02 -0.231027D-02  0.349447D-03
     23 -0.721564D-02  0.214615D-02 -0.533262D-02  0.115484D-03  0.194108D-02
     24 -0.395130D-02 -0.959540D-02 -0.456967D-02  0.394290D-03  0.273969D-02
     25 -0.343749D-03  0.161464D-02  0.126112D-02  0.358104D-03 -0.310938D-03
     26  0.531766D-03  0.146751D-02  0.648573D-05 -0.439404D-03 -0.228679D-03
     27  0.117284D-02 -0.553256D-03 -0.746871D-03 -0.248326D-03 -0.177148D-03
               21            22            23            24            25 
     21  0.143531D-01
     22 -0.147596D-02  0.506313D+00
     23  0.262516D-02  0.283307D+00  0.232576D+00
     24 -0.729580D-03  0.664727D-01 -0.237813D-01  0.106393D+00
     25  0.706027D-04 -0.330039D+00 -0.256164D+00  0.410409D-01  0.340705D+00
     26  0.775280D-04 -0.265529D+00 -0.212005D+00  0.330996D-01  0.263628D+00
     27 -0.760918D-04  0.525557D-01  0.406932D-01 -0.747901D-02 -0.403171D-01
               26            27 
     26  0.212009D+00
     27 -0.361091D-01  0.123649D-01
 Leave Link  716 at Wed Oct 26 17:45:27 2016, MaxMem= 6748635136 cpu:       1.5
 (Enter /opt/qcapps/g09/l103.exe)

 GradGradGradGradGradGradGradGradGradGradGradGradGradGradGradGradGradGrad
 Berny optimization.
 Search for a local minimum.
 Step number   1 out of a maximum of    2
 All quantities printed in internal units (Hartrees-Bohrs-Radians)
 Second derivative matrix not updated -- analytic derivatives used.
 ITU=  0
     Eigenvalues ---    0.00200   0.00201   0.00290   0.00301   0.00697
     Eigenvalues ---    0.00763   0.00824   0.00826   0.03102   0.03117
     Eigenvalues ---    0.04275   0.06329   0.06330   0.23150   0.52369
     Eigenvalues ---    0.52380   0.56534   1.08875   1.08898   1.14561
     Eigenvalues ---    1.17622
 Angle between quadratic step and forces=  68.99 degrees.
 Linear search not attempted -- first point.
 TrRot= -0.000160 -0.000082 -0.000032 -0.000018 -0.000101 -0.000018
 MatCor failed.
 Variable       Old X    -DE/DX   Delta X   Delta X   Delta X     New X
                                 (Linear)    (Quad)   (Total)
    X1        0.00039   0.00008   0.00000  -0.00024  -0.00040  -0.00001
    Y1        0.00034  -0.00001   0.00000  -0.00026  -0.00034   0.00000
    Z1       -0.00086   0.00009   0.00000   0.00089   0.00086   0.00000
    X2       -0.27476   0.00003   0.00000   0.00060   0.00074  -0.27402
    Y2        2.78457  -0.00007   0.00000  -0.00110  -0.00117   2.78340
    Z2       -1.93967  -0.00006   0.00000  -0.00042  -0.00048  -1.94015
    X3       -1.40585  -0.00003   0.00000   0.00286   0.00302  -1.40283
    Y3        4.18275   0.00005   0.00000   0.00057   0.00054   4.18329
    Z3       -1.67313   0.00002   0.00000   0.00140   0.00123  -1.67190
    X4       -2.76474  -0.00004   0.00000  -0.00157  -0.00194  -2.76668
    Y4       -0.34141   0.00003   0.00000   0.00009   0.00010  -0.34131
    Z4        1.95424   0.00000   0.00000  -0.00056  -0.00087   1.95337
    X5       -4.16790  -0.00004   0.00000  -0.00032  -0.00070  -4.16860
    Y5       -1.45888  -0.00004   0.00000  -0.00219  -0.00212  -1.46100
    Z5        1.65756   0.00001   0.00000   0.00167   0.00122   1.65878
    X6        0.32524  -0.00005   0.00000  -0.00014  -0.00019   0.32504
    Y6       -2.69901   0.00007   0.00000   0.00083   0.00073  -2.69828
    Z6       -2.04896  -0.00006   0.00000  -0.00050  -0.00050  -2.04946
    X7        1.44726   0.00003   0.00000   0.00029   0.00017   1.44743
    Y7       -4.10997  -0.00003   0.00000   0.00119   0.00105  -4.10892
    Z7       -1.81305   0.00002   0.00000   0.00052   0.00063  -1.81242
    X8        2.71535  -0.00001   0.00000   0.00064   0.00028   2.71564
    Y8        0.25622  -0.00004   0.00000   0.00013  -0.00005   0.25618
    Z8        2.03586   0.00001   0.00000   0.00013   0.00038   2.03623
    X9        4.12501   0.00003   0.00000  -0.00070  -0.00099   4.12402
    Y9        1.38539   0.00005   0.00000   0.00148   0.00125   1.38664
    Z9        1.82801  -0.00002   0.00000  -0.00284  -0.00245   1.82556
         Item               Value     Threshold  Converged?
 Maximum Force            0.000090     0.000450     YES
 RMS     Force            0.000045     0.000300     YES
 Maximum Displacement     0.003024     0.001800     NO 
 RMS     Displacement     0.001158     0.001200     YES
 Predicted change in Energy=-2.572368D-07
 GradGradGradGradGradGradGradGradGradGradGradGradGradGradGradGradGradGrad

 Leave Link  103 at Wed Oct 26 17:45:27 2016, MaxMem= 6748635136 cpu:       1.3
 (Enter /opt/qcapps/g09/l9999.exe)

 Test job not archived.
 1\1\GINC-TITAN13\Freq\RB3PW91\GenECP\H4O4Ti1\OHNISHI\26-Oct-2016\0\\#P
  B3PW91/GenECP SCFCon=7 SCFCyc=250 GFInput GFOldPrint Pseudo=Read Freq
  Integral=(Grid=UltraFine) Pop=Regular IOp(1/33=0,2/11=1,3/27=8,6/7=3)
 \\Frequency\\0,1\Ti,0.000206,0.000178,-0.000455\O,-0.145397,1.473532,-
 1.02643\H,-0.743946,2.213418,-0.88538\O,-1.463037,-0.180668,1.03414\H,
 -2.205556,-0.772004,0.877143\O,0.172107,-1.428255,-1.084264\H,0.765858
 ,-2.174904,-0.959426\O,1.436903,0.135587,1.077329\H,2.182862,0.733116,
 0.967342\\Version=AM64L-G09RevC.01\State=1-A\HF=-361.7657406\RMSD=9.78
 6e-08\RMSF=4.506e-05\ZeroPoint=0.052181\Thermal=0.0609443\Dipole=-0.00
 04374,0.0000896,-0.0015437\DipoleDeriv=2.3836998,0.0730214,0.0045992,-
 0.0743643,2.3849136,0.0035154,0.0012377,0.0056412,2.1684987,-0.553711,
 0.0750267,-0.1131994,0.0741494,-1.3454614,0.4948268,-0.1445609,0.55353
 39,-0.8336552,0.3010069,-0.0161335,0.0671772,0.0240147,0.3870966,-0.06
 61509,0.0460461,-0.0420493,0.3100473,-1.334858,-0.0891347,0.4967075,-0
 .092696,-0.5630641,0.1233582,0.5559095,0.1547607,-0.8333084,0.3858104,
 -0.02226,-0.0679424,0.0167876,0.3053036,-0.0674601,-0.0424791,-0.04619
 3,0.3065219,-0.5608122,0.0840083,0.1238088,0.0802068,-1.2999752,-0.513
 0679,0.1551208,-0.5717728,-0.8722762,0.3041861,-0.0142615,-0.0679224,0
 .0242768,0.3823075,0.0700398,-0.0451567,0.0448996,0.3118798,-1.308477,
 -0.063916,-0.5118535,-0.0655961,-0.5516504,-0.1124102,-0.5709383,-0.14
 37525,-0.8726776,0.3831549,-0.0263506,0.0686249,0.0132211,0.3005297,0.
 0673489,0.0448207,0.0449322,0.3149697\Polar=48.0546449,-0.0085641,48.0
 547932,0.0892261,0.1391742,41.5879163\PG=C01 [X(H4O4Ti1)]\NImag=0\\0.4
 5315438,-0.00006835,0.45325317,0.00048565,0.00069502,0.42022918,-0.034
 79011,0.02514481,-0.01801473,0.23354210,0.01627336,-0.18237221,0.10299
 837,-0.28321816,0.50872119,-0.01006903,0.08824369,-0.09837030,-0.03483
 082,-0.05007244,0.10287346,0.00031330,0.00012592,0.00434151,-0.2127372
 2,0.26401639,0.04421817,0.21277062,0.00901461,-0.01395769,0.00271957,0
 .25446618,-0.32486573,-0.05422302,-0.26211917,0.33598092,-0.00446135,0
 .01756131,-0.00241438,0.05149828,-0.06578252,-0.01193872,-0.04712883,0
 .05376789,0.01635295,-0.18064447,-0.01971511,0.10326096,0.00977818,-0.
 01731675,0.00775058,-0.00234251,0.00034380,0.00145300,0.50890392,-0.02
 792348,-0.03580736,0.02041770,-0.00752165,0.00150345,0.00540323,0.0001
 9266,0.00216725,-0.00250048,0.28452688,0.22956807,0.08816422,0.0123744
 7,-0.09920123,0.00398463,0.00942002,-0.00363000,-0.00042011,-0.0026114
 5,-0.00092806,-0.04303379,0.03720753,0.10670342,-0.01379562,-0.0090345
 4,0.00246897,-0.00028474,0.00164867,-0.00117772,0.00035511,-0.00031114
 ,-0.00007287,-0.32702186,-0.25242681,-0.06109735,0.33803473,-0.0008181
 7,0.00030389,-0.00424221,0.00058884,0.00143679,0.00010300,-0.00045047,
 -0.00023622,-0.00009409,-0.26145219,-0.20777630,-0.04918649,0.26004326
 ,0.20785550,0.01768410,0.00465198,-0.00257729,-0.00114265,0.00069105,-
 0.00078347,0.00024163,0.00016459,-0.00006709,-0.07302952,-0.05652975,-
 0.01464267,0.06087301,0.05194160,0.01912102,-0.03553571,0.02652866,0.0
 2075994,-0.00011742,0.00377319,-0.00098956,0.00065142,-0.00022097,-0.0
 0030142,0.00163147,0.00730154,0.00559618,0.00212567,-0.00010910,-0.002
 52387,0.23098457,0.01840850,-0.17414488,-0.10581782,0.00351958,-0.0127
 0052,0.00808624,-0.00176955,0.00100525,-0.00208816,0.01693768,0.010147
 40,-0.00743254,-0.00028343,-0.00229375,-0.00151076,-0.28557690,0.50498
 281,0.01246272,-0.09080672,-0.10583827,0.00072109,-0.00927054,0.017119
 07,-0.00150078,0.00152443,-0.00059003,0.00993020,-0.00360160,-0.004150
 42,-0.00264429,0.00038448,-0.00092213,0.02596733,0.05970809,0.10913116
 ,0.00030637,0.00075353,-0.00424219,0.00060939,-0.00188284,0.00145043,-
 0.00024594,0.00011407,-0.00019655,0.00144690,-0.00057405,0.00006491,-0
 .00023186,0.00044976,-0.00008186,-0.20945871,0.26390158,-0.03807131,0.
 20952602,0.00885531,-0.01308094,-0.00292935,-0.00019573,0.00098382,-0.
 00146756,0.00010580,-0.00018263,0.00002591,-0.00166052,-0.00036332,0.0
 0120954,0.00030731,0.00035917,0.00008489,0.25498745,-0.33060997,0.0473
 8800,-0.26243812,0.34118147,0.00491271,-0.01801895,-0.00329399,0.00032
 004,0.00210989,-0.00051707,0.00018320,-0.00005083,0.00047961,0.0006159
 5,0.00115678,-0.00070829,0.00017299,-0.00022922,-0.00007484,-0.0457301
 4,0.05920361,-0.00943284,0.04093062,-0.04687397,0.01435310,-0.17577380
 ,-0.01495220,-0.10591051,0.00201815,0.01714274,-0.00905427,0.00146297,
 -0.00160393,-0.00062708,-0.01273404,-0.00381906,0.00821320,0.00100079,
 0.00185689,-0.00204774,0.01006246,-0.01675209,-0.00812608,-0.00231027,
 0.00034945,-0.00147596,0.50631305,-0.02363628,-0.03451684,-0.01822099,
 0.00742395,0.00963269,0.00437848,-0.00053689,-0.00026197,-0.00114811,-
 0.00346288,-0.00010709,0.00045477,0.00016920,0.00059536,0.00033134,-0.
 00721564,0.00214615,-0.00533262,0.00011548,0.00194108,0.00262516,0.283
 30692,0.23257607,-0.09120884,-0.00996758,-0.10538737,-0.00513329,0.008
 48176,-0.00401765,-0.00002995,-0.00123305,-0.00082520,-0.00911048,-0.0
 0127543,0.01715522,0.00152592,0.00153173,-0.00053934,-0.00395130,-0.00
 959540,-0.00456967,0.00039429,0.00273969,-0.00072958,0.06647273,-0.023
 78127,0.10639259,-0.01323434,-0.00878272,-0.00314959,0.00198166,-0.000
 43659,0.00270222,-0.00022774,0.00031655,-0.00016318,0.00098241,0.00024
 397,-0.00147189,-0.00018222,-0.00010881,0.00002691,-0.00034375,0.00161
 464,0.00126112,0.00035810,-0.00031094,0.00007060,-0.33003930,-0.256163
 87,0.04104093,0.34070518,-0.00010550,0.00032285,0.00437972,-0.00020782
 ,-0.00233948,-0.00045162,0.00043531,0.00035083,0.00025825,0.00179910,0
 .00066790,-0.00143586,-0.00011252,-0.00024443,0.00017507,0.00053177,0.
 00146751,0.00000649,-0.00043940,-0.00022868,0.00007753,-0.26552870,-0.
 21200546,0.03309955,0.26362777,0.21200894,-0.01797016,-0.00473321,-0.0
 0314636,0.00259745,0.00142441,-0.00073532,0.00009516,-0.00005814,-0.00
 006909,0.00216311,-0.00027798,-0.00059797,-0.00004867,-0.00020881,0.00
 048582,0.00117284,-0.00055326,-0.00074687,-0.00024833,-0.00017715,-0.0
 0007609,0.05255572,0.04069324,-0.00747901,-0.04031712,-0.03610912,0.01
 236489\\-0.00008440,0.00001318,-0.00008989,-0.00003449,0.00007380,0.00
 005851,0.00003308,-0.00005435,-0.00001830,0.00004369,-0.00002647,0.000
 00457,0.00004142,0.00003804,-0.00000561,0.00005461,-0.00006822,0.00006
 334,-0.00003002,0.00002920,-0.00002329,0.00000541,0.00004078,-0.000010
 84,-0.00002930,-0.00004595,0.00002151\\\@


 The arm of the moral universe is long, but it bends toward justice.
 -- Martin Luther King, Jr.
 Job cpu time:  0 days  0 hours  1 minutes 13.5 seconds.
 File lengths (MBytes):  RWF=     22 Int=      0 D2E=      0 Chk=      2 Scr=      1
 Normal termination of Gaussian 09 at Wed Oct 26 17:45:27 2016.
real 74.85
user 71.25
sys 2.36
