 Running on titan11
 Entering Gaussian System, Link 0=g09
 Initial command:
 /opt/qcapps/g09/l1.exe /work/ohnishi/1477467876/Gau-21799.inp -scrdir=/work/ohnishi/1477467876/
 Entering Link 1 = /opt/qcapps/g09/l1.exe PID=     21800.
  
 Copyright (c) 1988,1990,1992,1993,1995,1998,2003,2009,2011,
            Gaussian, Inc.  All Rights Reserved.
  
 This is part of the Gaussian(R) 09 program.  It is based on
 the Gaussian(R) 03 system (copyright 2003, Gaussian, Inc.),
 the Gaussian(R) 98 system (copyright 1998, Gaussian, Inc.),
 the Gaussian(R) 94 system (copyright 1995, Gaussian, Inc.),
 the Gaussian 92(TM) system (copyright 1992, Gaussian, Inc.),
 the Gaussian 90(TM) system (copyright 1990, Gaussian, Inc.),
 the Gaussian 88(TM) system (copyright 1988, Gaussian, Inc.),
 the Gaussian 86(TM) system (copyright 1986, Carnegie Mellon
 University), and the Gaussian 82(TM) system (copyright 1983,
 Carnegie Mellon University). Gaussian is a federally registered
 trademark of Gaussian, Inc.
  
 This software contains proprietary and confidential information,
 including trade secrets, belonging to Gaussian, Inc.
  
 This software is provided under written license and may be
 used, copied, transmitted, or stored only in accord with that
 written license.
  
 The following legend is applicable only to US Government
 contracts under FAR:
  
                    RESTRICTED RIGHTS LEGEND
  
 Use, reproduction and disclosure by the US Government is
 subject to restrictions as set forth in subparagraphs (a)
 and (c) of the Commercial Computer Software - Restricted
 Rights clause in FAR 52.227-19.
  
 Gaussian, Inc.
 340 Quinnipiac St., Bldg. 40, Wallingford CT 06492
  
  
 ---------------------------------------------------------------
 Warning -- This program may not be used in any manner that
 competes with the business of Gaussian, Inc. or will provide
 assistance to any competitor of Gaussian, Inc.  The licensee
 of this program is prohibited from giving any competitor of
 Gaussian, Inc. access to this program.  By using this program,
 the user acknowledges that Gaussian, Inc. is engaged in the
 business of creating and licensing software in the field of
 computational chemistry and represents and warrants to the
 licensee that it is not a competitor of Gaussian, Inc. and that
 it will not use this program in any manner prohibited above.
 ---------------------------------------------------------------
  

 Cite this work as:
 Gaussian 09, Revision C.01,
 M. J. Frisch, G. W. Trucks, H. B. Schlegel, G. E. Scuseria, 
 M. A. Robb, J. R. Cheeseman, G. Scalmani, V. Barone, B. Mennucci, 
 G. A. Petersson, H. Nakatsuji, M. Caricato, X. Li, H. P. Hratchian, 
 A. F. Izmaylov, J. Bloino, G. Zheng, J. L. Sonnenberg, M. Hada, 
 M. Ehara, K. Toyota, R. Fukuda, J. Hasegawa, M. Ishida, T. Nakajima, 
 Y. Honda, O. Kitao, H. Nakai, T. Vreven, J. A. Montgomery, Jr., 
 J. E. Peralta, F. Ogliaro, M. Bearpark, J. J. Heyd, E. Brothers, 
 K. N. Kudin, V. N. Staroverov, T. Keith, R. Kobayashi, J. Normand, 
 K. Raghavachari, A. Rendell, J. C. Burant, S. S. Iyengar, J. Tomasi, 
 M. Cossi, N. Rega, J. M. Millam, M. Klene, J. E. Knox, J. B. Cross, 
 V. Bakken, C. Adamo, J. Jaramillo, R. Gomperts, R. E. Stratmann, 
 O. Yazyev, A. J. Austin, R. Cammi, C. Pomelli, J. W. Ochterski, 
 R. L. Martin, K. Morokuma, V. G. Zakrzewski, G. A. Voth, 
 P. Salvador, J. J. Dannenberg, S. Dapprich, A. D. Daniels, 
 O. Farkas, J. B. Foresman, J. V. Ortiz, J. Cioslowski, 
 and D. J. Fox, Gaussian, Inc., Wallingford CT, 2010.
 
 ******************************************
 Gaussian 09:  AM64L-G09RevC.01 23-Sep-2011
                26-Oct-2016 
 ******************************************
 %NprocShared=8
 Will use up to    8 processors via shared memory.
 %Mem=25712MB
 ----------------------------------------------------------------------
 #T B3PW91/GenECP SCFCon=7 SCFCyc=250 GFInput GFOldPrint Opt=(MaxCyc=60
 ) Integral=(Grid=UltraFine) Pop=Regular Pseudo=Read IOp(1/33=0,2/11=1,
 3/27=8,6/7=3)
 ----------------------------------------------------------------------
 --------
 TiO2 1-3
 --------
 Charge =  0 Multiplicity = 1
 Symbolic Z-Matrix:
 Ti                   -0.30486   0.14963  -0.19039 
 O                    -1.29486  -1.5651   -0.19039 
 O                    -1.29486   1.86436  -0.19039 
 H                    -0.67139   2.59435  -0.19039 
 O                     1.67514   0.14963  -0.19039 
 H                     1.99559  -0.08966  -1.06312 
 

 GradGradGradGradGradGradGradGradGradGradGradGradGradGradGradGradGradGrad
 Initialization pass.
                           ----------------------------
                           !    Initial Parameters    !
                           ! (Angstroms and Degrees)  !
 --------------------------                            --------------------------
 ! Name  Definition              Value          Derivative Info.                !
 --------------------------------------------------------------------------------
 ! R1    R(1,2)                  1.98           estimate D2E/DX2                !
 ! R2    R(1,3)                  1.98           estimate D2E/DX2                !
 ! R3    R(1,5)                  1.98           estimate D2E/DX2                !
 ! R4    R(3,4)                  0.96           estimate D2E/DX2                !
 ! R5    R(5,6)                  0.96           estimate D2E/DX2                !
 ! A1    A(2,1,3)              120.0            estimate D2E/DX2                !
 ! A2    A(2,1,5)              120.0            estimate D2E/DX2                !
 ! A3    A(3,1,5)              120.0            estimate D2E/DX2                !
 ! A4    A(1,3,4)              109.5            estimate D2E/DX2                !
 ! A5    A(1,5,6)              109.5            estimate D2E/DX2                !
 ! D1    D(2,1,3,4)            179.9999         estimate D2E/DX2                !
 ! D2    D(5,1,3,4)             -0.0001         estimate D2E/DX2                !
 ! D3    D(2,1,5,6)             74.6672         estimate D2E/DX2                !
 ! D4    D(3,1,5,6)           -105.3328         estimate D2E/DX2                !
 --------------------------------------------------------------------------------
 Number of steps in this run=     60 maximum allowed number of steps=    100.
 GradGradGradGradGradGradGradGradGradGradGradGradGradGradGradGradGradGrad

                          Input orientation:                          
 ---------------------------------------------------------------------
 Center     Atomic      Atomic             Coordinates (Angstroms)
 Number     Number       Type             X           Y           Z
 ---------------------------------------------------------------------
      1         22           0       -0.304862    0.149628   -0.190394
      2          8           0       -1.294862   -1.565103   -0.190394
      3          8           0       -1.294862    1.864358   -0.190394
      4          1           0       -0.671392    2.594348   -0.190393
      5          8           0        1.675138    0.149628   -0.190394
      6          1           0        1.995593   -0.089660   -1.063120
 ---------------------------------------------------------------------
                    Distance matrix (angstroms):
                    1          2          3          4          5
     1  Ti   0.000000
     2  O    1.980000   0.000000
     3  O    1.980000   3.429461   0.000000
     4  H    2.472044   4.205918   0.960000   0.000000
     5  O    1.980000   3.429461   3.429461   3.388637   0.000000
     6  H    2.472044   3.710212   3.925166   3.883086   0.960000
                    6
     6  H    0.000000
 Framework group  C1[X(H2O3Ti)]
 Deg. of freedom    12
                         Standard orientation:                         
 ---------------------------------------------------------------------
 Center     Atomic      Atomic             Coordinates (Angstroms)
 Number     Number       Type             X           Y           Z
 ---------------------------------------------------------------------
      1         22           0        0.008493    0.060913   -0.016805
      2          8           0        0.676030    1.924729    0.014573
      3          8           0       -1.938935   -0.294055    0.027057
      4          1           0       -2.092535   -1.241454    0.006021
      5          8           0        1.288383   -1.447934   -0.092044
      6          1           0        1.701861   -1.560555    0.766997
 ---------------------------------------------------------------------
 Rotational constants (GHZ):      5.1049947      4.9517100      2.5316883
 ======================================================================================================
                                       Pseudopotential Parameters
 ======================================================================================================
  Center     Atomic      Valence      Angular      Power
  Number     Number     Electrons     Momentum     of R      Exponent        Coefficient   SO-Coeffient
 ======================================================================================================
    1         22           12
                                      F and up 
                                                     2        1.0000000        0.00000000    0.00000000
                                      S - F
                                                     2       13.0100000      158.24159300    0.00000000
                                                     2        5.8620000       17.51182400    0.00000000
                                      P - F
                                                     2       12.4600000       95.23512700    0.00000000
                                                     2        5.2170000       10.04785600    0.00000000
                                      D - F
                                                     2       15.3500000      -17.56886100    0.00000000
                                                     2        4.9800000       -0.58725600    0.00000000
    2          8
                                   No pseudopotential on this center.
    3          8
                                   No pseudopotential on this center.
    4          1
                                   No pseudopotential on this center.
    5          8
                                   No pseudopotential on this center.
    6          1
                                   No pseudopotential on this center.
 ======================================================================================================
 AO basis set in the form of general basis input (Overlap normalization):
      1 0
 S   3 1.00       0.000000000000
      0.1078036500D+02  0.1783892477D+01
      0.9717013000D+01 -0.2000689535D+01
      0.4507755000D+01 -0.7563332022D+00
 S   1 1.00       0.000000000000
      0.1246708000D+01  0.1000000000D+01
 S   1 1.00       0.000000000000
      0.5087070000D+00  0.1000000000D+01
 S   1 1.00       0.000000000000
      0.7343800000D-01  0.1000000000D+01
 S   1 1.00       0.000000000000
      0.3004800000D-01  0.1000000000D+01
 S   1 1.00       0.000000000000
      0.1000000000D-01  0.1000000000D+01
 P   2 1.00       0.000000000000
      0.1756638100D+02  0.8860101480D-01
      0.7705844000D+01 -0.1070746179D+01
 P   2 1.00       0.000000000000
      0.3329138000D+01  0.2001088977D+00
      0.1308104000D+01  0.8379855716D+00
 P   1 1.00       0.000000000000
      0.4544820000D+00  0.1000000000D+01
 P   1 1.00       0.000000000000
      0.7177200000D-01  0.1000000000D+01
 P   1 1.00       0.000000000000
      0.2378400000D-01  0.1000000000D+01
 D   4 1.00       0.000000000000
      0.1951919400D+02  0.3581400317D-01
      0.5864613000D+01  0.1723730152D+00
      0.1928038000D+01  0.4251360376D+00
      0.6065630000D+00  0.6025950533D+00
 D   1 1.00       0.000000000000
      0.1639610000D+00  0.1000000000D+01
 D   1 1.00       0.000000000000
      0.5000000000D-01  0.1000000000D+01
 F   1 1.00       0.000000000000
      0.5000000000D+00  0.1000000000D+01
 ****
      2 0
 S   6 1.00       0.000000000000
      0.5484671660D+04  0.1831074430D-02
      0.8252349460D+03  0.1395017220D-01
      0.1880469580D+03  0.6844507810D-01
      0.5296450000D+02  0.2327143360D+00
      0.1689757040D+02  0.4701928980D+00
      0.5799635340D+01  0.3585208530D+00
 SP   3 1.00       0.000000000000
      0.1553961625D+02 -0.1107775495D+00  0.7087426823D-01
      0.3599933586D+01 -0.1480262627D+00  0.3397528391D+00
      0.1013761750D+01  0.1130767015D+01  0.7271585773D+00
 SP   1 1.00       0.000000000000
      0.2700058226D+00  0.1000000000D+01  0.1000000000D+01
 D   1 1.00       0.000000000000
      0.8000000000D+00  0.1000000000D+01
 ****
      3 0
 S   6 1.00       0.000000000000
      0.5484671660D+04  0.1831074430D-02
      0.8252349460D+03  0.1395017220D-01
      0.1880469580D+03  0.6844507810D-01
      0.5296450000D+02  0.2327143360D+00
      0.1689757040D+02  0.4701928980D+00
      0.5799635340D+01  0.3585208530D+00
 SP   3 1.00       0.000000000000
      0.1553961625D+02 -0.1107775495D+00  0.7087426823D-01
      0.3599933586D+01 -0.1480262627D+00  0.3397528391D+00
      0.1013761750D+01  0.1130767015D+01  0.7271585773D+00
 SP   1 1.00       0.000000000000
      0.2700058226D+00  0.1000000000D+01  0.1000000000D+01
 D   1 1.00       0.000000000000
      0.8000000000D+00  0.1000000000D+01
 ****
      4 0
 S   3 1.00       0.000000000000
      0.1873113696D+02  0.3349460434D-01
      0.2825394365D+01  0.2347269535D+00
      0.6401216923D+00  0.8137573261D+00
 S   1 1.00       0.000000000000
      0.1612777588D+00  0.1000000000D+01
 P   1 1.00       0.000000000000
      0.1100000000D+01  0.1000000000D+01
 ****
      5 0
 S   6 1.00       0.000000000000
      0.5484671660D+04  0.1831074430D-02
      0.8252349460D+03  0.1395017220D-01
      0.1880469580D+03  0.6844507810D-01
      0.5296450000D+02  0.2327143360D+00
      0.1689757040D+02  0.4701928980D+00
      0.5799635340D+01  0.3585208530D+00
 SP   3 1.00       0.000000000000
      0.1553961625D+02 -0.1107775495D+00  0.7087426823D-01
      0.3599933586D+01 -0.1480262627D+00  0.3397528391D+00
      0.1013761750D+01  0.1130767015D+01  0.7271585773D+00
 SP   1 1.00       0.000000000000
      0.2700058226D+00  0.1000000000D+01  0.1000000000D+01
 D   1 1.00       0.000000000000
      0.8000000000D+00  0.1000000000D+01
 ****
      6 0
 S   3 1.00       0.000000000000
      0.1873113696D+02  0.3349460434D-01
      0.2825394365D+01  0.2347269535D+00
      0.6401216923D+00  0.8137573261D+00
 S   1 1.00       0.000000000000
      0.1612777588D+00  0.1000000000D+01
 P   1 1.00       0.000000000000
      0.1100000000D+01  0.1000000000D+01
 ****

 ***********************************************************************************************************************************
 *             ATOMIC CENTER             *        ATOMIC ORBITAL       *                     GAUSSIAN FUNCTIONS                    *
 ***********************************************************************************************************************************
 *                                       * FUNCTION    SHELL    SCALE  *                                                           *
 *    ATOM   X-COORD  Y-COORD  Z-COORD   *  NUMBER     TYPE     FACTOR *  EXPONENT    S-COEF      P-COEF      D-COEF      F-COEF   *
 ***********************************************************************************************************************************
 *     Ti     0.01605  0.11511 -0.03176                                                                                            *
+                                                1   S           1.00                                                               
+                                                                      0.107804D+020.756404D+010.000000D+000.000000D+000.000000D+00 
 *                                                                     0.971701D+01-.784765D+010.000000D+000.000000D+000.000000D+00*
 *                                                                     0.450776D+01-.166761D+010.000000D+000.000000D+000.000000D+00*
 *                                               2   S           1.00                                                              *
+                                                                      0.124671D+010.840879D+000.000000D+000.000000D+000.000000D+00 
 *                                               3   S           1.00                                                              *
+                                                                      0.508707D+000.429300D+000.000000D+000.000000D+000.000000D+00 
 *                                               4   S           1.00                                                              *
+                                                                      0.734380D-010.100543D+000.000000D+000.000000D+000.000000D+00 
 *                                               5   S           1.00                                                              *
+                                                                      0.300480D-010.514365D-010.000000D+000.000000D+000.000000D+00 
 *                                               6   S           1.00                                                              *
+                                                                      0.100000D-010.225377D-010.000000D+000.000000D+000.000000D+00 
 *                                           7-  9   P           1.00                                                              *
+                                                                      0.175664D+020.000000D+000.454184D+010.000000D+000.000000D+00 
 *                                                                     0.770584D+010.000000D+00-.195953D+020.000000D+000.000000D+00*
 *                                          10- 12   P           1.00                                                              *
+                                                                      0.332914D+010.000000D+000.128269D+010.000000D+000.000000D+00 
 *                                                                     0.130810D+010.000000D+000.167101D+010.000000D+000.000000D+00*
 *                                          13- 15   P           1.00                                                              *
+                                                                      0.454482D+000.000000D+000.531907D+000.000000D+000.000000D+00 
 *                                          16- 18   P           1.00                                                              *
+                                                                      0.717720D-010.000000D+000.529522D-010.000000D+000.000000D+00 
 *                                          19- 21   P           1.00                                                              *
+                                                                      0.237840D-010.000000D+000.133136D-010.000000D+000.000000D+00 
 *                                          22- 26   D           1.00                                                              *
+                                                                      0.195192D+020.000000D+000.000000D+000.106849D+020.000000D+00 
 *                                                                     0.586461D+010.000000D+000.000000D+000.627043D+010.000000D+00*
 *                                                                     0.192804D+010.000000D+000.000000D+000.220744D+010.000000D+00*
 *                                                                     0.606563D+000.000000D+000.000000D+000.413493D+000.000000D+00*
 *                                          27- 31   D           1.00                                                              *
+                                                                      0.163961D+000.000000D+000.000000D+000.695353D-010.000000D+00 
 *                                          32- 36   D           1.00                                                              *
+                                                                      0.500000D-010.000000D+000.000000D+000.870176D-020.000000D+00 
 *                                          31- 43   F           1.00                                                              *
+                                                                      0.500000D+000.000000D+000.000000D+000.000000D+000.309483D+00 
 *---------------------------------------------------------------------------------------------------------------------------------*
 *     O      1.27751  3.63721  0.02754                                                                                            *
+                                               44   S           1.00                                                               
+                                                                      0.548467D+040.831724D+000.000000D+000.000000D+000.000000D+00 
 *                                                                     0.825235D+030.153082D+010.000000D+000.000000D+000.000000D+00*
 *                                                                     0.188047D+030.247715D+010.000000D+000.000000D+000.000000D+00*
 *                                                                     0.529645D+020.325628D+010.000000D+000.000000D+000.000000D+00*
 *                                                                     0.168976D+020.279289D+010.000000D+000.000000D+000.000000D+00*
 *                                                                     0.579964D+010.954938D+000.000000D+000.000000D+000.000000D+00*
 *                                          45- 48   SP          1.00                                                              *
+                                                                      0.155396D+02-.617934D+000.311694D+010.000000D+000.000000D+00 
 *                                                                     0.359993D+01-.275721D+000.240144D+010.000000D+000.000000D+00*
 *                                                                     0.101376D+010.814208D+000.105436D+010.000000D+000.000000D+00*
 *                                          49- 52   SP          1.00                                                              *
+                                                                      0.270006D+000.266956D+000.277432D+000.000000D+000.000000D+00 
 *                                          53- 57   D           1.00                                                              *
+                                                                      0.800000D+000.000000D+000.000000D+000.111382D+010.000000D+00 
 *---------------------------------------------------------------------------------------------------------------------------------*
 *     O     -3.66406 -0.55568  0.05113                                                                                            *
+                                               58   S           1.00                                                               
+                                                                      0.548467D+040.831724D+000.000000D+000.000000D+000.000000D+00 
 *                                                                     0.825235D+030.153082D+010.000000D+000.000000D+000.000000D+00*
 *                                                                     0.188047D+030.247715D+010.000000D+000.000000D+000.000000D+00*
 *                                                                     0.529645D+020.325628D+010.000000D+000.000000D+000.000000D+00*
 *                                                                     0.168976D+020.279289D+010.000000D+000.000000D+000.000000D+00*
 *                                                                     0.579964D+010.954938D+000.000000D+000.000000D+000.000000D+00*
 *                                          59- 62   SP          1.00                                                              *
+                                                                      0.155396D+02-.617934D+000.311694D+010.000000D+000.000000D+00 
 *                                                                     0.359993D+01-.275721D+000.240144D+010.000000D+000.000000D+00*
 *                                                                     0.101376D+010.814208D+000.105436D+010.000000D+000.000000D+00*
 *                                          63- 66   SP          1.00                                                              *
+                                                                      0.270006D+000.266956D+000.277432D+000.000000D+000.000000D+00 
 *                                          67- 71   D           1.00                                                              *
+                                                                      0.800000D+000.000000D+000.000000D+000.111382D+010.000000D+00 
 *---------------------------------------------------------------------------------------------------------------------------------*
 *     H     -3.95432 -2.34601  0.01138                                                                                            *
+                                               72   S           1.00                                                               
+                                                                      0.187311D+020.214935D+000.000000D+000.000000D+000.000000D+00 
 *                                                                     0.282539D+010.364571D+000.000000D+000.000000D+000.000000D+00*
 *                                                                     0.640122D+000.415051D+000.000000D+000.000000D+000.000000D+00*
 *                                              73   S           1.00                                                              *
+                                                                      0.161278D+000.181381D+000.000000D+000.000000D+000.000000D+00 
 *                                          74- 76   P           1.00                                                              *
+                                                                      0.110000D+010.000000D+000.160576D+010.000000D+000.000000D+00 
 *---------------------------------------------------------------------------------------------------------------------------------*
 *     O      2.43469 -2.73620 -0.17394                                                                                            *
+                                               77   S           1.00                                                               
+                                                                      0.548467D+040.831724D+000.000000D+000.000000D+000.000000D+00 
 *                                                                     0.825235D+030.153082D+010.000000D+000.000000D+000.000000D+00*
 *                                                                     0.188047D+030.247715D+010.000000D+000.000000D+000.000000D+00*
 *                                                                     0.529645D+020.325628D+010.000000D+000.000000D+000.000000D+00*
 *                                                                     0.168976D+020.279289D+010.000000D+000.000000D+000.000000D+00*
 *                                                                     0.579964D+010.954938D+000.000000D+000.000000D+000.000000D+00*
 *                                          78- 81   SP          1.00                                                              *
+                                                                      0.155396D+02-.617934D+000.311694D+010.000000D+000.000000D+00 
 *                                                                     0.359993D+01-.275721D+000.240144D+010.000000D+000.000000D+00*
 *                                                                     0.101376D+010.814208D+000.105436D+010.000000D+000.000000D+00*
 *                                          82- 85   SP          1.00                                                              *
+                                                                      0.270006D+000.266956D+000.277432D+000.000000D+000.000000D+00 
 *                                          86- 90   D           1.00                                                              *
+                                                                      0.800000D+000.000000D+000.000000D+000.111382D+010.000000D+00 
 *---------------------------------------------------------------------------------------------------------------------------------*
 *     H      3.21605 -2.94902  1.44941                                                                                            *
+                                               91   S           1.00                                                               
+                                                                      0.187311D+020.214935D+000.000000D+000.000000D+000.000000D+00 
 *                                                                     0.282539D+010.364571D+000.000000D+000.000000D+000.000000D+00*
 *                                                                     0.640122D+000.415051D+000.000000D+000.000000D+000.000000D+00*
 *                                              92   S           1.00                                                              *
+                                                                      0.161278D+000.181381D+000.000000D+000.000000D+000.000000D+00 
 *                                          93- 95   P           1.00                                                              *
+                                                                      0.110000D+010.000000D+000.160576D+010.000000D+000.000000D+00 
 ***********************************************************************************************************************************
    95 basis functions,   173 primitive gaussians,   104 cartesian basis functions
    19 alpha electrons       19 beta electrons
       nuclear repulsion energy       125.1663067828 Hartrees.
 NAtoms=    6 NActive=    6 NUniq=    6 SFac= 1.00D+00 NAtFMM=   60 NAOKFM=F Big=F
   1 Symmetry operations used in ECPInt.
 ECPInt:  NShTT=     561 NPrTT=    2216 LenC2=     559 LenP2D=    1802.
 LDataN:  DoStor=T MaxTD1= 6 Len=  172
 Harris functional with IExCor=  408 diagonalized for initial guess.
 ExpMin= 1.00D-02 ExpMax= 5.48D+03 ExpMxC= 8.25D+02 IAcc=3 IRadAn=         5 AccDes= 0.00D+00
 HarFok:  IExCor=  408 AccDes= 0.00D+00 IRadAn=         5 IDoV= 1
 ScaDFX=  1.000000  1.000000  1.000000  1.000000
 FoFCou: FMM=F IPFlag=           0 FMFlag=      100000 FMFlg1=           0
         NFxFlg=           0 DoJE=T BraDBF=F KetDBF=T FulRan=T
         Omega=  0.000000  0.000000  1.000000  0.000000  0.000000 ICntrl=     500 IOpCl=  0
         NMat0=    1 NMatS0=    1 NMatT0=    0 NMatD0=    1 NMtDS0=    0 NMtDT0=    0
         I1Cent=           4 NGrid=           0.
 Petite list used in FoFCou.
 Initial guess orbital symmetries:
       Occupied  (A) (A) (A) (A) (A) (A) (A) (A) (A) (A) (A) (A)
                 (A) (A) (A) (A) (A) (A) (A)
       Virtual   (A) (A) (A) (A) (A) (A) (A) (A) (A) (A) (A) (A)
                 (A) (A) (A) (A) (A) (A) (A) (A) (A) (A) (A) (A)
                 (A) (A) (A) (A) (A) (A) (A) (A) (A) (A) (A) (A)
                 (A) (A) (A) (A) (A) (A) (A) (A) (A) (A) (A) (A)
                 (A) (A) (A) (A) (A) (A) (A) (A) (A) (A) (A) (A)
                 (A) (A) (A) (A) (A) (A) (A) (A) (A) (A) (A) (A)
                 (A) (A) (A) (A)
 The electronic state of the initial guess is 1-A.
 EnCoef did     8 forward-backward iterations
 EnCoef did     3 forward-backward iterations
 SCF Done:  E(RB3PW91) =  -285.175906654     A.U. after   16 cycles
             Convg  =    0.3015D-07             -V/T =  2.1422

 **********************************************************************

            Population analysis using the SCF density.

 **********************************************************************

 Orbital symmetries:
       Occupied  (A) (A) (A) (A) (A) (A) (A) (A) (A) (A) (A) (A)
                 (A) (A) (A) (A) (A) (A) (A)
       Virtual   (A) (A) (A) (A) (A) (A) (A) (A) (A) (A) (A) (A)
                 (A) (A) (A) (A) (A) (A) (A) (A) (A) (A) (A) (A)
                 (A) (A) (A) (A) (A) (A) (A) (A) (A) (A) (A) (A)
                 (A) (A) (A) (A) (A) (A) (A) (A) (A) (A) (A) (A)
                 (A) (A) (A) (A) (A) (A) (A) (A) (A) (A) (A) (A)
                 (A) (A) (A) (A) (A) (A) (A) (A) (A) (A) (A) (A)
                 (A) (A) (A) (A)
 The electronic state is 1-A.
 Alpha  occ. eigenvalues --  -19.17074 -19.16709 -19.13553  -2.56377  -1.60194
 Alpha  occ. eigenvalues --   -1.59185  -1.57696  -0.99681  -0.99241  -0.85430
 Alpha  occ. eigenvalues --   -0.49691  -0.49116  -0.37268  -0.37104  -0.35093
 Alpha  occ. eigenvalues --   -0.34839  -0.30694  -0.28705  -0.27363
 Alpha virt. eigenvalues --   -0.15792  -0.14296  -0.12785  -0.08093  -0.06983
 Alpha virt. eigenvalues --   -0.03447  -0.00177   0.01496   0.02566   0.03231
 Alpha virt. eigenvalues --    0.08513   0.09776   0.10352   0.11105   0.12998
 Alpha virt. eigenvalues --    0.13998   0.15751   0.16583   0.17345   0.20759
 Alpha virt. eigenvalues --    0.24645   0.48896   0.49370   0.51705   0.53157
 Alpha virt. eigenvalues --    0.54622   0.85164   0.86410   0.90107   0.92554
 Alpha virt. eigenvalues --    0.95782   0.98758   1.00762   1.01807   1.06447
 Alpha virt. eigenvalues --    1.08830   1.15193   1.17977   1.21330   1.21897
 Alpha virt. eigenvalues --    1.26211   1.26559   1.29140   1.31097   1.33088
 Alpha virt. eigenvalues --    1.38413   1.40291   1.54966   1.57327   1.59150
 Alpha virt. eigenvalues --    1.59665   1.62621   1.67600   1.79095   1.81488
 Alpha virt. eigenvalues --    1.85614   1.87674   1.99854   2.02208   2.08588
 Alpha virt. eigenvalues --    2.14610   2.32990   2.33449   2.44628   2.47689
 Alpha virt. eigenvalues --    2.52745   2.61900   2.62733   2.68399   2.71963
 Alpha virt. eigenvalues --    3.45677   3.46412  24.10973  24.37058  24.38066
 Alpha virt. eigenvalues --   35.22259
     Molecular Orbital Coefficients:
                           1         2         3         4         5
                           O         O         O         O         O
     Eigenvalues --   -19.17074 -19.16709 -19.13553  -2.56377  -1.60194
   1 1   Ti 1S         -0.00009  -0.00009  -0.00008   0.39904  -0.00033
   2        2S         -0.00035  -0.00032  -0.00030   0.72802  -0.00049
   3        3S         -0.00022  -0.00030  -0.00034   0.51226  -0.00083
   4        4S          0.00459   0.00469   0.00477   0.01069   0.00074
   5        5S         -0.00173  -0.00135  -0.00137  -0.00518  -0.00026
   6        6S          0.00036   0.00028   0.00027   0.00141   0.00008
   7        7PX         0.00014  -0.00009  -0.00005  -0.00002   0.00340
   8        7PY         0.00002   0.00011  -0.00013   0.00003  -0.00107
   9        7PZ        -0.00001   0.00000  -0.00001   0.00009   0.10719
  10        8PX         0.00069  -0.00044  -0.00023  -0.00002   0.02321
  11        8PY         0.00011   0.00053  -0.00065   0.00070  -0.00729
  12        8PZ        -0.00003   0.00001  -0.00003   0.00061   0.73040
  13        9PX        -0.00137   0.00089   0.00047  -0.00089   0.01284
  14        9PY        -0.00023  -0.00105   0.00127  -0.00283  -0.00405
  15        9PZ         0.00006  -0.00002   0.00006   0.00023   0.39691
  16       10PX        -0.00433   0.00251   0.00125   0.00000   0.00065
  17       10PY        -0.00034  -0.00318   0.00467   0.00021  -0.00052
  18       10PZ         0.00008  -0.00018   0.00005   0.00009   0.00600
  19       11PX         0.00088  -0.00060  -0.00037  -0.00002  -0.00009
  20       11PY         0.00021   0.00066  -0.00083  -0.00008   0.00010
  21       11PZ        -0.00007  -0.00002  -0.00007  -0.00004  -0.00093
  22       12D 0       -0.00013  -0.00013  -0.00013   0.00820   0.00045
  23       12D+1       -0.00001  -0.00002   0.00000   0.00017  -0.00015
  24       12D-1        0.00001   0.00003   0.00001  -0.00003  -0.00191
  25       12D+2        0.00012  -0.00003  -0.00009   0.00328   0.00012
  26       12D-2        0.00001  -0.00013   0.00006  -0.00337   0.00000
  27       13D 0       -0.00123  -0.00132  -0.00134   0.00074   0.00013
  28       13D+1       -0.00005  -0.00005   0.00007   0.00021  -0.00037
  29       13D-1       -0.00009   0.00002   0.00000  -0.00016  -0.00149
  30       13D+2        0.00218  -0.00027  -0.00191  -0.00064  -0.00007
  31       13D-2        0.00121  -0.00229   0.00175   0.00076  -0.00040
  32       14D 0       -0.00002  -0.00021  -0.00022  -0.00037  -0.00004
  33       14D+1       -0.00013  -0.00017  -0.00010  -0.00005   0.00016
  34       14D-1        0.00007   0.00016   0.00012   0.00005   0.00030
  35       14D+2        0.00074  -0.00015  -0.00072   0.00010   0.00001
  36       14D-2        0.00019  -0.00055   0.00087  -0.00010  -0.00017
  37       15F 0       -0.00004   0.00001  -0.00003  -0.00003   0.00303
  38       15F+1        0.00038  -0.00025  -0.00012   0.00009   0.00026
  39       15F-1        0.00004   0.00031  -0.00041  -0.00001  -0.00003
  40       15F+2        0.00002  -0.00001  -0.00002   0.00004   0.00054
  41       15F-2        0.00000   0.00001   0.00000  -0.00009  -0.00051
  42       15F+3       -0.00043  -0.00048  -0.00048   0.00029  -0.00006
  43       15F-3       -0.00034  -0.00029  -0.00029   0.00008  -0.00010
  44 2   O  1S         -0.00003  -0.00002   0.99519  -0.00132  -0.00017
  45        2S         -0.00001  -0.00002   0.02801   0.00172   0.00032
  46        2PX        -0.00001  -0.00004  -0.00030  -0.00083  -0.00005
  47        2PY        -0.00009  -0.00006  -0.00087  -0.00231  -0.00035
  48        2PZ         0.00000   0.00000  -0.00001  -0.00004   0.00316
  49        3S          0.00014   0.00023  -0.01474   0.00278   0.00047
  50        3PX        -0.00010   0.00028   0.00104  -0.00091   0.00004
  51        3PY         0.00046   0.00018   0.00300  -0.00247  -0.00021
  52        3PZ         0.00003   0.00002   0.00006  -0.00003   0.00254
  53        4D 0        0.00009   0.00010   0.00022  -0.00068  -0.00005
  54        4D+1        0.00000   0.00000   0.00000   0.00001  -0.00043
  55        4D-1       -0.00001  -0.00001  -0.00002   0.00003  -0.00119
  56        4D+2        0.00010  -0.00005   0.00034  -0.00092  -0.00006
  57        4D-2        0.00007  -0.00009  -0.00027   0.00076  -0.00001
  58 3   O  1S          0.99507   0.00039   0.00003  -0.00141   0.00009
  59        2S          0.02859  -0.00003  -0.00003   0.00194  -0.00020
  60        2PX         0.00063   0.00008   0.00009   0.00263  -0.00007
  61        2PY        -0.00167   0.00003  -0.00002   0.00040  -0.00005
  62        2PZ        -0.00005   0.00000   0.00000  -0.00006   0.00304
  63        3S         -0.01380   0.00036   0.00036   0.00331  -0.00006
  64        3PX        -0.00303  -0.00037  -0.00040   0.00254   0.00000
  65        3PY        -0.00035  -0.00049   0.00014   0.00041  -0.00007
  66        3PZ         0.00006  -0.00002   0.00000  -0.00005   0.00216
  67        4D 0       -0.00025   0.00006   0.00009  -0.00062  -0.00004
  68        4D+1        0.00003   0.00001   0.00001  -0.00004   0.00117
  69        4D-1        0.00004   0.00000  -0.00001   0.00000   0.00010
  70        4D+2       -0.00116  -0.00005  -0.00008   0.00096   0.00001
  71        4D-2        0.00020  -0.00009   0.00011   0.00030  -0.00003
  72 4   H  1S         -0.00109  -0.00013   0.00003   0.00008  -0.00006
  73        2S          0.00061  -0.00032  -0.00027  -0.00017   0.00009
  74        3PX        -0.00017  -0.00001  -0.00001  -0.00011  -0.00001
  75        3PY        -0.00202  -0.00006  -0.00007   0.00010  -0.00001
  76        3PZ        -0.00005   0.00000   0.00000   0.00000   0.00000
  77 5   O  1S         -0.00040   0.99506   0.00002  -0.00141  -0.00008
  78        2S         -0.00003   0.02853   0.00000   0.00192   0.00001
  79        2PX         0.00001   0.00018  -0.00004  -0.00172  -0.00002
  80        2PY         0.00006   0.00048   0.00003   0.00205  -0.00006
  81        2PZ         0.00005   0.00166   0.00006   0.00016   0.00272
  82        3S          0.00019  -0.01354   0.00008   0.00345  -0.00004
  83        3PX        -0.00033   0.00197   0.00015  -0.00153  -0.00005
  84        3PY        -0.00022  -0.00233   0.00007   0.00215   0.00004
  85        3PZ        -0.00039  -0.00016  -0.00044   0.00028   0.00200
  86        4D 0        0.00001   0.00088   0.00002  -0.00053   0.00012
  87        4D+1       -0.00005   0.00070  -0.00003  -0.00009  -0.00073
  88        4D-1       -0.00002  -0.00025   0.00000   0.00015   0.00088
  89        4D+2        0.00010   0.00023  -0.00011  -0.00025  -0.00002
  90        4D-2       -0.00002   0.00030   0.00002  -0.00102  -0.00001
  91 6   H  1S          0.00006  -0.00113   0.00003   0.00002   0.00072
  92        2S          0.00082   0.00046   0.00097  -0.00007  -0.00029
  93        3PX        -0.00006   0.00081  -0.00010   0.00001  -0.00021
  94        3PY         0.00007  -0.00013   0.00005  -0.00007   0.00015
  95        3PZ        -0.00004   0.00188  -0.00004  -0.00011  -0.00021
                           6         7         8         9        10
                           O         O         O         O         O
     Eigenvalues --    -1.59185  -1.57696  -0.99681  -0.99241  -0.85430
   1 1   Ti 1S         -0.00020   0.00257  -0.02681  -0.00491  -0.02360
   2        2S         -0.00075   0.00819  -0.06361  -0.01178  -0.05830
   3        3S          0.00032  -0.00275  -0.02326  -0.00373  -0.01808
   4        4S          0.00094  -0.00421   0.01901   0.00208   0.03138
   5        5S         -0.00038   0.00173   0.00237  -0.00003  -0.00343
   6        6S          0.00011  -0.00051   0.00155   0.00038   0.00278
   7        7PX         0.09825   0.04066   0.00483  -0.01266  -0.00432
   8        7PY        -0.04082   0.09795   0.00706   0.00559  -0.01201
   9        7PZ        -0.00362  -0.00032  -0.00032  -0.00004  -0.00020
  10        8PX         0.67045   0.27803   0.03437  -0.09014  -0.03109
  11        8PY        -0.27853   0.66971   0.05025   0.03981  -0.08640
  12        8PZ        -0.02472  -0.00219  -0.00229  -0.00027  -0.00143
  13        9PX         0.36294   0.15107   0.01455  -0.03732  -0.01143
  14        9PY        -0.15084   0.36425   0.02171   0.01644  -0.03142
  15        9PZ        -0.01305  -0.00122  -0.00087   0.00000  -0.00051
  16       10PX         0.00632   0.00291   0.00242  -0.00207   0.00055
  17       10PY        -0.00279   0.00595  -0.00078   0.00142   0.00081
  18       10PZ         0.00016  -0.00015   0.00184   0.00243   0.00046
  19       11PX        -0.00108  -0.00042  -0.00296   0.00737   0.00240
  20       11PY         0.00055  -0.00110  -0.00399  -0.00269   0.00670
  21       11PZ         0.00000   0.00004  -0.00007  -0.00038   0.00011
  22       12D 0        0.00031   0.00091  -0.02637  -0.00499  -0.02763
  23       12D+1        0.00042   0.00022  -0.00061   0.00124   0.00046
  24       12D-1       -0.00003   0.00013  -0.00064  -0.00046   0.00164
  25       12D+2       -0.00097   0.00159   0.01982  -0.01947  -0.03870
  26       12D-2       -0.00058  -0.00152  -0.00585  -0.03336   0.03159
  27       13D 0       -0.00037   0.00165  -0.00244   0.00085  -0.00394
  28       13D+1        0.00035   0.00003   0.00145   0.00198   0.00003
  29       13D-1       -0.00013   0.00029  -0.00123  -0.00187   0.00039
  30       13D+2       -0.00222   0.00030  -0.00164   0.00188  -0.00253
  31       13D-2       -0.00413  -0.00056   0.00235  -0.00359   0.00196
  32       14D 0        0.00009  -0.00003  -0.00220   0.00049  -0.00187
  33       14D+1        0.00009  -0.00001   0.00060   0.00077   0.00027
  34       14D-1       -0.00010  -0.00003  -0.00060  -0.00056  -0.00004
  35       14D+2        0.00070   0.00032   0.00060  -0.00096  -0.00182
  36       14D-2        0.00067  -0.00061   0.00028  -0.00386   0.00194
  37       15F 0       -0.00028   0.00006  -0.00058  -0.00054  -0.00015
  38       15F+1        0.00086   0.00092   0.00152  -0.00344  -0.00118
  39       15F-1       -0.00034   0.00228   0.00205   0.00130  -0.00325
  40       15F+2        0.00005   0.00008   0.00015  -0.00010  -0.00014
  41       15F-2       -0.00026   0.00021  -0.00050  -0.00099   0.00023
  42       15F+3        0.00043   0.00141  -0.00527  -0.00167  -0.00525
  43       15F-3       -0.00150   0.00075  -0.00505  -0.00012  -0.00308
  44 2   O  1S          0.00048  -0.00980  -0.00536  -0.00073  -0.22976
  45        2S         -0.00108   0.02082   0.01290   0.00109   0.51293
  46        2PX         0.00278  -0.00552  -0.00087  -0.00123  -0.01283
  47        2PY        -0.00011  -0.01584  -0.00330   0.00006  -0.03672
  48        2PZ        -0.00009  -0.00031  -0.00008   0.00000  -0.00043
  49        3S         -0.00056   0.01789   0.00704   0.00372   0.55292
  50        3PX         0.00275  -0.00209  -0.00039  -0.00031  -0.01584
  51        3PY        -0.00070  -0.00638  -0.00048  -0.00096  -0.04487
  52        3PZ        -0.00010  -0.00021   0.00001   0.00000  -0.00049
  53        4D 0        0.00004  -0.00063  -0.00009  -0.00004  -0.00282
  54        4D+1       -0.00001   0.00003  -0.00004  -0.00004   0.00012
  55        4D-1        0.00005   0.00007   0.00000  -0.00003   0.00011
  56        4D+2       -0.00080  -0.00107  -0.00009   0.00026  -0.00706
  57        4D-2       -0.00107   0.00079  -0.00012   0.00037   0.00575
  58 3   O  1S          0.00924   0.00646  -0.17739   0.12355   0.00479
  59        2S         -0.01979  -0.01350   0.38925  -0.27073  -0.01017
  60        2PX        -0.01410  -0.01008   0.01388  -0.00741   0.00333
  61        2PY        -0.00250   0.00140  -0.08549   0.06184   0.00265
  62        2PZ         0.00031   0.00026  -0.00260   0.00170  -0.00003
  63        3S         -0.01522  -0.01130   0.39598  -0.27908  -0.01437
  64        3PX        -0.00473  -0.00391   0.03003  -0.02016  -0.00025
  65        3PY        -0.00126   0.00210  -0.02959   0.02149  -0.00021
  66        3PZ         0.00016   0.00015  -0.00125   0.00133   0.00003
  67        4D 0        0.00067   0.00054  -0.00611   0.00421   0.00007
  68        4D+1        0.00005   0.00005  -0.00021   0.00022  -0.00001
  69        4D-1        0.00002  -0.00003   0.00022  -0.00012   0.00002
  70        4D+2       -0.00087  -0.00097   0.00044  -0.00050   0.00005
  71        4D-2       -0.00067   0.00090   0.00194  -0.00109  -0.00072
  72 4   H  1S         -0.00241  -0.00232   0.14134  -0.09997  -0.00460
  73        2S          0.00089   0.00137   0.01112  -0.00618  -0.00257
  74        3PX        -0.00040  -0.00050   0.00344  -0.00234  -0.00011
  75        3PY        -0.00050  -0.00061   0.02030  -0.01423  -0.00060
  76        3PZ        -0.00001   0.00000   0.00044  -0.00035  -0.00002
  77 5   O  1S         -0.00991   0.00522  -0.12314  -0.17756   0.00410
  78        2S          0.02116  -0.01117   0.26998   0.38882  -0.00845
  79        2PX        -0.00854   0.00686   0.01386   0.02177  -0.00428
  80        2PY         0.01276  -0.00456   0.00821   0.00881   0.00146
  81        2PZ         0.00198  -0.00117   0.05709   0.08326  -0.00303
  82        3S          0.01587  -0.00869   0.27388   0.39845  -0.01311
  83        3PX        -0.00212   0.00303  -0.00553  -0.00971  -0.00049
  84        3PY         0.00456  -0.00110   0.01658   0.02168  -0.00082
  85        3PZ         0.00131  -0.00058   0.02327   0.03328  -0.00083
  86        4D 0       -0.00049   0.00019   0.00152   0.00224  -0.00012
  87        4D+1       -0.00012   0.00021   0.00195   0.00280  -0.00019
  88        4D-1        0.00038  -0.00011   0.00066   0.00081   0.00002
  89        4D+2       -0.00077  -0.00086  -0.00079  -0.00038   0.00051
  90        4D-2       -0.00108   0.00079  -0.00438  -0.00657   0.00017
  91 6   H  1S          0.00296  -0.00140   0.09840   0.14302  -0.00472
  92        2S         -0.00124   0.00017   0.00735   0.01291  -0.00218
  93        3PX        -0.00062   0.00027  -0.00636  -0.00914   0.00020
  94        3PY         0.00049  -0.00022   0.00177   0.00261  -0.00008
  95        3PZ        -0.00051   0.00023  -0.01258  -0.01828   0.00058
                          11        12        13        14        15
                           O         O         O         O         O
     Eigenvalues --    -0.49691  -0.49116  -0.37268  -0.37104  -0.35093
   1 1   Ti 1S          0.03966  -0.00603  -0.03590  -0.04342  -0.00264
   2        2S          0.10122  -0.01593  -0.08880  -0.10833  -0.00648
   3        3S          0.03931  -0.00372  -0.05217  -0.05868  -0.00392
   4        4S         -0.13698   0.01435   0.18642   0.21050   0.01266
   5        5S          0.02726  -0.00401  -0.08379  -0.10222  -0.00550
   6        6S         -0.00646   0.00090   0.01356   0.01602   0.00073
   7        7PX        -0.00175   0.01197   0.01051  -0.00712  -0.00089
   8        7PY        -0.00590  -0.00626   0.00302   0.00894   0.00073
   9        7PZ        -0.00285  -0.00272   0.00022  -0.00261  -0.00656
  10        8PX        -0.01285   0.08848   0.07854  -0.05318  -0.00665
  11        8PY        -0.04361  -0.04613   0.02230   0.06660   0.00543
  12        8PZ        -0.02096  -0.02005   0.00161  -0.01937  -0.04887
  13        9PX        -0.00331   0.01818   0.01889  -0.01163  -0.00117
  14        9PY        -0.00999  -0.01038   0.00761   0.01697   0.00151
  15        9PZ        -0.00370  -0.00352  -0.00005  -0.00295  -0.00666
  16       10PX         0.01130  -0.04787  -0.02282   0.03199   0.00373
  17       10PY         0.02269   0.03069  -0.04421  -0.04153  -0.00476
  18       10PZ         0.02158   0.02065  -0.00548   0.04595   0.08973
  19       11PX         0.00037   0.00262   0.03845  -0.02140  -0.00209
  20       11PY        -0.00353   0.00386  -0.00353   0.02843   0.00261
  21       11PZ        -0.00005  -0.00047  -0.00069  -0.00131   0.00463
  22       12D 0        0.08506  -0.01245  -0.10901  -0.13853  -0.00129
  23       12D+1        0.03849   0.02288  -0.01493   0.06916  -0.21398
  24       12D-1       -0.04013  -0.03315   0.00748  -0.06902  -0.07090
  25       12D+2       -0.04816   0.12095   0.14503  -0.03083  -0.00732
  26       12D-2        0.08863   0.04183   0.19996  -0.17049  -0.01338
  27       13D 0        0.02476   0.00093  -0.04129  -0.04219   0.00075
  28       13D+1        0.01798   0.01228  -0.00581   0.03973  -0.09437
  29       13D-1       -0.01947  -0.01606   0.00483  -0.03964  -0.03752
  30       13D+2       -0.01489   0.04783   0.02680  -0.01094  -0.00263
  31       13D-2        0.03179  -0.00602   0.09413  -0.04789  -0.00390
  32       14D 0        0.00535   0.00094   0.00997   0.01915   0.00370
  33       14D+1        0.00526   0.00364   0.00002   0.01800  -0.04570
  34       14D-1       -0.00638  -0.00482   0.00126  -0.01729  -0.02099
  35       14D+2       -0.00523   0.01360  -0.02389  -0.00046  -0.00089
  36       14D-2        0.00752   0.00295   0.00524   0.01887   0.00305
  37       15F 0       -0.00420  -0.00390   0.00031  -0.00429  -0.00922
  38       15F+1       -0.00021   0.00552   0.00570  -0.00310  -0.00141
  39       15F-1       -0.00326  -0.00255   0.00093   0.00446   0.00008
  40       15F+2       -0.00143  -0.00014   0.00051  -0.00191   0.01191
  41       15F-2       -0.00626  -0.00494   0.00167  -0.00745   0.00513
  42       15F+3        0.01388  -0.00463  -0.00432  -0.00930   0.00014
  43       15F-3        0.00114   0.00198  -0.01125  -0.00869  -0.00099
  44 2   O  1S         -0.00360  -0.00165   0.00873   0.00624   0.00011
  45        2S          0.00811   0.00143  -0.01627  -0.01343  -0.00037
  46        2PX         0.00896   0.01103   0.04262  -0.04333  -0.00476
  47        2PY         0.00443   0.00647  -0.09022  -0.02969   0.00217
  48        2PZ        -0.00208  -0.00171  -0.00183  -0.01027  -0.04193
  49        3S          0.01193   0.01706  -0.05474  -0.02988   0.00012
  50        3PX         0.00304   0.00426   0.02707  -0.02816  -0.00329
  51        3PY         0.00075  -0.00271  -0.04291  -0.01326   0.00129
  52        3PZ        -0.00056  -0.00087  -0.00091  -0.00598  -0.02284
  53        4D 0       -0.00013   0.00015  -0.00110  -0.00071   0.00006
  54        4D+1        0.00002  -0.00001  -0.00003   0.00016   0.00042
  55        4D-1        0.00008   0.00009   0.00013   0.00038   0.00183
  56        4D+2       -0.00087  -0.00029  -0.00338   0.00108   0.00026
  57        4D-2       -0.00012  -0.00100  -0.00216   0.00176   0.00014
  58 3   O  1S          0.03472  -0.04906   0.03603   0.01207   0.00083
  59        2S         -0.07564   0.10667  -0.09311  -0.02762  -0.00172
  60        2PX        -0.12103   0.15216   0.52800   0.06800   0.01516
  61        2PY        -0.29270   0.38446  -0.18717  -0.05679  -0.01903
  62        2PZ        -0.00729   0.00386  -0.01385  -0.04556   0.58284
  63        3S         -0.14031   0.20006  -0.12842  -0.05442  -0.00459
  64        3PX        -0.07357   0.09657   0.37686   0.04544   0.01047
  65        3PY        -0.15880   0.20975  -0.12326  -0.03602  -0.01379
  66        3PZ        -0.00338   0.00227  -0.00975  -0.03076   0.42338
  67        4D 0       -0.00301   0.00394  -0.01143  -0.00198  -0.00156
  68        4D+1        0.00003  -0.00028  -0.00112  -0.00138   0.01637
  69        4D-1        0.00064  -0.00076   0.00069   0.00125  -0.01757
  70        4D+2       -0.01435   0.02017   0.00951  -0.00182  -0.00033
  71        4D-2       -0.00387   0.00434  -0.02069  -0.00214  -0.00080
  72 4   H  1S          0.16095  -0.21200   0.03385   0.02396   0.00204
  73        2S          0.10364  -0.13608   0.01452   0.02168   0.00158
  74        3PX         0.00010  -0.00063   0.01806   0.00319   0.00060
  75        3PY         0.00881  -0.01070  -0.00242  -0.00001  -0.00052
  76        3PZ         0.00017  -0.00038  -0.00037  -0.00146   0.02021
  77 5   O  1S          0.04513   0.03982  -0.00243   0.03620   0.00378
  78        2S         -0.09801  -0.08558   0.00749  -0.09357  -0.00917
  79        2PX         0.21614   0.17462   0.05788  -0.29183  -0.01088
  80        2PY        -0.13341  -0.05747  -0.03236   0.38261   0.04032
  81        2PZ         0.32569   0.25823  -0.04638   0.29946   0.02804
  82        3S         -0.18189  -0.16701   0.00726  -0.12981  -0.01555
  83        3PX         0.12497   0.10288   0.04896  -0.21012  -0.00892
  84        3PY        -0.07977  -0.04235  -0.01674   0.27815   0.02932
  85        3PZ         0.17971   0.14256  -0.03085   0.21194   0.01750
  86        4D 0        0.01670   0.01258  -0.00077   0.00550   0.00038
  87        4D+1        0.00679   0.00522   0.00250  -0.01188  -0.00049
  88        4D-1        0.00093   0.00238  -0.00198   0.01903   0.00095
  89        4D+2        0.00309   0.00011  -0.00086  -0.00598  -0.00071
  90        4D-2        0.00717   0.00589   0.00329  -0.00896  -0.00056
  91 6   H  1S          0.21126   0.16283  -0.00520   0.03147   0.00771
  92        2S          0.13292   0.10504  -0.00656   0.01475   0.00630
  93        3PX        -0.00466  -0.00327   0.00199  -0.01149  -0.00096
  94        3PY        -0.00035   0.00139  -0.00112   0.01316   0.00141
  95        3PZ        -0.01012  -0.00765  -0.00061   0.00708   0.00014
                          16        17        18        19        20
                           O         O         O         O         V
     Eigenvalues --    -0.34839  -0.30694  -0.28705  -0.27363  -0.15792
   1 1   Ti 1S          0.01020   0.03354  -0.00108   0.00149  -0.07341
   2        2S          0.02510   0.08694  -0.00239   0.00443  -0.18145
   3        3S          0.01710   0.04047  -0.00255  -0.00069  -0.12776
   4        4S         -0.06224  -0.19360   0.00536  -0.00775   0.48929
   5        5S          0.00905   0.10597   0.00249   0.02793   0.01069
   6        6S         -0.00181  -0.02105  -0.00058  -0.00546   0.02193
   7        7PX        -0.00700   0.00790   0.00043  -0.01032  -0.00020
   8        7PY         0.00007   0.01488   0.00112   0.00419   0.00085
   9        7PZ         0.00159  -0.00007  -0.00793  -0.00058  -0.00064
  10        8PX        -0.05195   0.05906   0.00325  -0.07693  -0.00145
  11        8PY         0.00073   0.11148   0.00837   0.03125   0.00592
  12        8PZ         0.01181  -0.00051  -0.05912  -0.00428  -0.00472
  13        9PX        -0.01153   0.01221   0.00025  -0.01648   0.00026
  14        9PY        -0.00166   0.02003   0.00165   0.00652   0.00663
  15        9PZ         0.00174   0.00016  -0.00923  -0.00079  -0.00265
  16       10PX         0.07466  -0.04593  -0.00046   0.09923  -0.00310
  17       10PY         0.04867  -0.06460  -0.00557  -0.05251  -0.04302
  18       10PZ        -0.01933   0.00192   0.12773   0.01493   0.02758
  19       11PX         0.00605   0.01717  -0.00007  -0.01034  -0.00039
  20       11PY         0.01889   0.03961   0.00273  -0.00119  -0.00128
  21       11PZ        -0.00180   0.00033   0.00733   0.00079   0.00266
  22       12D 0        0.02898   0.14051   0.01706   0.01742   0.72620
  23       12D+1       -0.02477   0.00571   0.09395   0.02455   0.06386
  24       12D-1        0.03846  -0.04228   0.34747  -0.01761  -0.04983
  25       12D+2        0.19973   0.21527   0.00778   0.09780  -0.05543
  26       12D-2       -0.08946  -0.17362  -0.01286   0.14327   0.05564
  27       13D 0        0.01214   0.04437   0.00719   0.00457   0.25550
  28       13D+1       -0.00701   0.00299   0.04112   0.01177   0.02735
  29       13D-1        0.01815  -0.01832   0.14573  -0.00968  -0.02259
  30       13D+2        0.10257   0.04359   0.00014   0.06737  -0.01486
  31       13D-2       -0.02681  -0.04323  -0.00365   0.08135   0.01516
  32       14D 0        0.00153  -0.01773   0.00394  -0.00765   0.05462
  33       14D+1       -0.00215   0.00004   0.01322   0.00427   0.00797
  34       14D-1        0.01282  -0.00392   0.04305  -0.00484  -0.00976
  35       14D+2        0.04090  -0.05230  -0.00347   0.03773   0.00579
  36       14D-2        0.00204   0.03316   0.00193   0.05296  -0.00130
  37       15F 0        0.00198  -0.00017  -0.00996  -0.00096   0.00044
  38       15F+1       -0.00221   0.00342   0.00032  -0.00265  -0.00075
  39       15F-1        0.00065   0.00592   0.00132   0.00145  -0.00371
  40       15F+2        0.00044   0.00042  -0.00763   0.00043  -0.00019
  41       15F-2        0.00250  -0.00179   0.00794  -0.00056  -0.00052
  42       15F+3        0.00774   0.00565   0.00012  -0.00895  -0.00083
  43       15F-3       -0.00936   0.00614   0.00039   0.01558  -0.00167
  44 2   O  1S         -0.01093  -0.02988  -0.00052  -0.00017   0.00573
  45        2S          0.02516   0.08021   0.00179  -0.00002  -0.01598
  46        2PX         0.09679   0.16745   0.00034   0.55107  -0.02970
  47        2PY         0.11192   0.51148   0.01376  -0.18735  -0.03988
  48        2PZ         0.01320  -0.01346   0.53150   0.00154  -0.00602
  49        3S          0.05240   0.10231   0.00001   0.00314  -0.01942
  50        3PX         0.05002   0.11837   0.00094   0.38148  -0.02526
  51        3PY         0.07004   0.35163   0.01008  -0.13158  -0.03259
  52        3PZ         0.00636  -0.00820   0.36898   0.00154  -0.00546
  53        4D 0        0.00284   0.01049   0.00002   0.00009   0.00386
  54        4D+1       -0.00026   0.00014  -0.00618  -0.00007   0.00025
  55        4D-1       -0.00049   0.00030  -0.01740  -0.00001  -0.00011
  56        4D+2        0.00294   0.01419   0.00044  -0.01020   0.00161
  57        4D-2       -0.00469  -0.01114  -0.00017  -0.01267  -0.00111
  58 3   O  1S          0.00603   0.00364   0.00038  -0.00387   0.00247
  59        2S         -0.00898  -0.01418  -0.00157   0.01351  -0.00835
  60        2PX        -0.03383   0.10870   0.01277  -0.11270   0.03966
  61        2PY        -0.04975  -0.04410  -0.00517   0.03988   0.01324
  62        2PZ        -0.01392  -0.00574   0.08612   0.01247   0.00176
  63        3S         -0.04630   0.00729   0.00077   0.00215  -0.01001
  64        3PX        -0.03041   0.08691   0.01125  -0.10701   0.03850
  65        3PY        -0.03538  -0.02860  -0.00317   0.03071   0.00669
  66        3PZ        -0.00816  -0.00507   0.06814   0.01078   0.00117
  67        4D 0       -0.00061  -0.00261  -0.00023   0.00223   0.00593
  68        4D+1       -0.00009  -0.00021   0.00039   0.00020   0.00008
  69        4D-1        0.00054   0.00006  -0.00188  -0.00053  -0.00033
  70        4D+2       -0.00219   0.00062  -0.00009   0.00040  -0.00230
  71        4D-2        0.00253  -0.00058  -0.00026   0.00294  -0.00450
  72 4   H  1S          0.02799   0.01551   0.00085  -0.01062  -0.01052
  73        2S          0.03900  -0.00784   0.00204  -0.04173  -0.01362
  74        3PX        -0.00086   0.00367   0.00051  -0.00440   0.00254
  75        3PY         0.00231  -0.00094  -0.00015  -0.00008  -0.00124
  76        3PZ        -0.00053  -0.00010   0.00273   0.00043   0.00008
  77 5   O  1S          0.00107  -0.00362   0.00385  -0.00283   0.00403
  78        2S         -0.00439   0.00596  -0.00929   0.00076  -0.01107
  79        2PX         0.37162  -0.15364  -0.03106  -0.12423  -0.01268
  80        2PY         0.40991  -0.10823  -0.00141  -0.00743   0.05722
  81        2PZ        -0.11913   0.04327   0.03450   0.03500  -0.02295
  82        3S          0.00424   0.02546  -0.01718   0.03626  -0.02510
  83        3PX         0.26115  -0.11572  -0.02242  -0.11379  -0.01304
  84        3PY         0.29853  -0.07271  -0.00088  -0.00448   0.05385
  85        3PZ        -0.08895   0.03122   0.02820   0.03053  -0.01674
  86        4D 0       -0.00823   0.00214   0.00162   0.00168   0.00527
  87        4D+1        0.01272  -0.00563   0.00153  -0.00459  -0.00046
  88        4D-1        0.01089  -0.00221  -0.00063   0.00082   0.00188
  89        4D+2       -0.01060  -0.00099   0.00025  -0.00037   0.00108
  90        4D-2        0.00390  -0.00283  -0.00073  -0.00040   0.00440
  91 6   H  1S          0.00203  -0.00998   0.01319  -0.01218  -0.00299
  92        2S          0.00324   0.00195   0.00940  -0.01469   0.00364
  93        3PX         0.01321  -0.00543  -0.00119  -0.00351  -0.00076
  94        3PY         0.01454  -0.00435   0.00031   0.00013   0.00377
  95        3PZ        -0.00485   0.00189   0.00112   0.00246   0.00404
                          21        22        23        24        25
                           V         V         V         V         V
     Eigenvalues --    -0.14296  -0.12785  -0.08093  -0.06983  -0.03447
   1 1   Ti 1S          0.00543  -0.00060   0.01895   0.00053  -0.02288
   2        2S          0.01390  -0.00180   0.05056   0.00126  -0.05086
   3        3S          0.00672   0.00032   0.01894   0.00105  -0.07091
   4        4S         -0.02908   0.00499  -0.09374   0.00177  -0.02476
   5        5S          0.02331  -0.01725   0.03084  -0.00162   0.41437
   6        6S         -0.00658   0.00396  -0.04146  -0.00806   0.50879
   7        7PX        -0.00022   0.00013   0.00313  -0.01129   0.00063
   8        7PY        -0.00117   0.00024   0.01682   0.00139   0.00391
   9        7PZ        -0.00299   0.00418   0.00056  -0.00040  -0.00228
  10        8PX        -0.00165   0.00101   0.02375  -0.08391   0.00485
  11        8PY        -0.00869   0.00183   0.12635   0.01011   0.02972
  12        8PZ        -0.02237   0.03166   0.00427  -0.00296  -0.01731
  13        9PX        -0.00130   0.00031   0.00426  -0.02730   0.00000
  14        9PY        -0.00201  -0.00014   0.02530   0.00481   0.00877
  15        9PZ        -0.00258   0.00042   0.00063  -0.00106  -0.00466
  16       10PX         0.03349  -0.01319  -0.08349   0.19024   0.00365
  17       10PY        -0.00883   0.01151  -0.25189  -0.03041  -0.04001
  18       10PZ         0.06031  -0.08396  -0.00743   0.01969   0.04707
  19       11PX         0.00444  -0.00330   0.01417  -0.11648  -0.02964
  20       11PY        -0.00538   0.00203   0.11521   0.02318  -0.29652
  21       11PZ         0.00716  -0.00590  -0.00676   0.00229   0.16260
  22       12D 0       -0.07594   0.00456  -0.01800   0.00595  -0.28921
  23       12D+1        0.69192   0.44391   0.03543  -0.02366  -0.01166
  24       12D-1       -0.44956   0.62966  -0.00833  -0.00240   0.01847
  25       12D+2        0.03685   0.01749  -0.52804   0.58855   0.00298
  26       12D-2       -0.00750  -0.00165   0.56091   0.55474   0.03025
  27       13D 0       -0.02552   0.00078  -0.02432   0.00219  -0.07027
  28       13D+1        0.24308   0.15298   0.01227  -0.00247  -0.00938
  29       13D-1       -0.15706   0.21371  -0.00635  -0.00365   0.01332
  30       13D+2        0.01321   0.00914  -0.19220   0.19783  -0.01196
  31       13D-2       -0.01383   0.00417   0.21368   0.16379   0.01303
  32       14D 0       -0.00892   0.00168  -0.03029  -0.00034   0.01400
  33       14D+1       -0.01088  -0.03081  -0.00552   0.00580   0.04072
  34       14D-1        0.00171  -0.03433   0.00521  -0.00829  -0.06352
  35       14D+2        0.00139  -0.00263   0.01715  -0.02432  -0.02618
  36       14D-2       -0.02527   0.01148   0.02838  -0.03681   0.01846
  37       15F 0       -0.00329   0.00556  -0.00001  -0.00037   0.00264
  38       15F+1        0.00045   0.00026   0.00092  -0.00214   0.00011
  39       15F-1       -0.00014  -0.00012   0.00356   0.00075  -0.00251
  40       15F+2       -0.00197   0.00990  -0.00061   0.00015   0.00019
  41       15F-2        0.00040  -0.00686   0.00011  -0.00064   0.00059
  42       15F+3        0.00108   0.00009   0.00515   0.00318   0.01531
  43       15F-3       -0.00090  -0.00032  -0.00112  -0.00694   0.01030
  44 2   O  1S         -0.00053   0.00015   0.00769  -0.00194   0.01592
  45        2S         -0.00005   0.00048  -0.01277   0.00300  -0.03840
  46        2PX        -0.02166  -0.00165   0.03914  -0.25455   0.01658
  47        2PY        -0.00093   0.01057   0.23760   0.05494   0.09767
  48        2PZ         0.09011  -0.32281   0.00988  -0.00032  -0.02338
  49        3S          0.00849  -0.00425  -0.05993   0.01754  -0.09967
  50        3PX        -0.01673  -0.00216   0.03750  -0.21328   0.01484
  51        3PY        -0.00234   0.00913   0.22643   0.03961   0.08575
  52        3PZ         0.07148  -0.25907   0.00933  -0.00083  -0.01917
  53        4D 0       -0.00038  -0.00019  -0.00110   0.00010  -0.00115
  54        4D+1        0.00288  -0.00046   0.00011  -0.00026   0.00018
  55        4D-1       -0.00051  -0.00337   0.00007   0.00019   0.00005
  56        4D+2       -0.00026   0.00001  -0.00370  -0.00545   0.00024
  57        4D-2       -0.00006   0.00005   0.00221  -0.00715  -0.00065
  58 3   O  1S         -0.00002  -0.00015  -0.02012   0.01175   0.03460
  59        2S         -0.00054   0.00084   0.04347  -0.02776  -0.08674
  60        2PX        -0.00319   0.00725   0.00699  -0.17948  -0.07372
  61        2PY        -0.00622  -0.00398   0.08970   0.01480   0.09071
  62        2PZ         0.15942   0.16326   0.00437  -0.00065  -0.01794
  63        3S          0.00322  -0.00140   0.13216  -0.07130  -0.24840
  64        3PX        -0.00097   0.00460   0.01119  -0.17796  -0.04872
  65        3PY        -0.00540  -0.00367   0.05054   0.00587   0.09474
  66        3PZ         0.13700   0.14038   0.00264   0.00024  -0.01537
  67        4D 0       -0.00051   0.00025   0.00370  -0.00253  -0.00067
  68        4D+1       -0.00625  -0.00748  -0.00051   0.00003   0.00009
  69        4D-1       -0.00932  -0.00432   0.00001   0.00011   0.00026
  70        4D+2        0.00012  -0.00053   0.00559   0.01117   0.00204
  71        4D-2        0.00013   0.00000  -0.01639   0.00353   0.00254
  72 4   H  1S          0.00003  -0.00003  -0.07101  -0.01239   0.02255
  73        2S          0.00952  -0.00342  -0.14704   0.01700   0.15918
  74        3PX        -0.00025   0.00029   0.00219  -0.00845  -0.00259
  75        3PY         0.00017  -0.00022  -0.00160   0.00167  -0.00970
  76        3PZ         0.00656   0.00549  -0.00003   0.00007  -0.00034
  77 5   O  1S         -0.01296   0.00387  -0.01123  -0.01719   0.03876
  78        2S          0.02869  -0.00793   0.02503   0.03896  -0.09608
  79        2PX         0.05119  -0.01703   0.04751  -0.16402   0.04282
  80        2PY        -0.02610   0.00324   0.20012   0.02919  -0.01429
  81        2PZ        -0.12120   0.03188   0.00408   0.04201  -0.09391
  82        3S          0.07396  -0.02641   0.07736   0.10992  -0.27697
  83        3PX         0.05343  -0.02049   0.03626  -0.14772   0.02762
  84        3PY        -0.02529   0.00589   0.19361   0.03629   0.00074
  85        3PZ        -0.08304   0.01691   0.00289   0.04985  -0.09215
  86        4D 0       -0.00385   0.00057   0.00103   0.00540  -0.00351
  87        4D+1       -0.00795   0.00490   0.00127  -0.00468   0.00154
  88        4D-1        0.00998  -0.00048   0.00581   0.00137  -0.00105
  89        4D+2       -0.00059   0.00029   0.01108  -0.00907   0.00097
  90        4D-2        0.00184  -0.00071   0.00502   0.00987   0.00061
  91 6   H  1S         -0.06382   0.01982   0.00115  -0.02419   0.02970
  92        2S         -0.10127   0.04827  -0.01500  -0.07582   0.14638
  93        3PX         0.00365  -0.00092   0.00096  -0.00675   0.00558
  94        3PY        -0.00053   0.00074   0.00781   0.00231  -0.00185
  95        3PZ        -0.00002  -0.00023  -0.00136   0.00284   0.00836
                          26        27        28        29        30
                           V         V         V         V         V
     Eigenvalues --    -0.00177   0.01496   0.02566   0.03231   0.08513
   1 1   Ti 1S          0.00797  -0.00225  -0.01258  -0.03307  -0.00132
   2        2S          0.01825  -0.00282  -0.03797  -0.08034   0.00187
   3        3S          0.02253  -0.01730   0.00272  -0.07977  -0.02464
   4        4S         -0.08483   0.13482  -0.37511  -0.13926   0.12553
   5        5S          0.10093  -0.33795   1.42191   1.51314  -0.13429
   6        6S         -0.23620   0.43176  -1.34781  -1.07163   0.10463
   7        7PX        -0.00288  -0.00497  -0.00145   0.00127  -0.00091
   8        7PY         0.00029   0.00003   0.00391  -0.00146   0.00049
   9        7PZ        -0.01293   0.00674   0.00308  -0.00109  -0.02749
  10        8PX        -0.02191  -0.03789  -0.01107   0.00970  -0.00699
  11        8PY         0.00220   0.00024   0.02990  -0.01123   0.00373
  12        8PZ        -0.09818   0.05122   0.02340  -0.00834  -0.21011
  13        9PX        -0.00905  -0.01028  -0.00127   0.00148  -0.00407
  14        9PY         0.00381  -0.00006   0.01140   0.00545   0.00342
  15        9PZ        -0.01750   0.00861   0.00168  -0.00494  -0.06517
  16       10PX         0.02640  -0.08403  -0.05775   0.00483   0.07531
  17       10PY        -0.04745  -0.00002  -0.01473  -0.23567  -0.07568
  18       10PZ         0.28429  -0.16082  -0.05409   0.06919   1.42192
  19       11PX         0.39649   0.84885   0.28058  -0.09538   0.06217
  20       11PY         0.04943   0.20618  -0.61158   0.79501  -0.01763
  21       11PZ         0.66085  -0.28486  -0.16795  -0.05376  -1.14788
  22       12D 0        0.01871  -0.04992  -0.06105  -0.25337  -0.00857
  23       12D+1       -0.00379  -0.00938  -0.00826  -0.01458   0.00193
  24       12D-1        0.05041  -0.02593  -0.00759   0.01210   0.05164
  25       12D+2       -0.02217  -0.03308   0.03718  -0.02045  -0.00986
  26       12D-2       -0.00538   0.00778  -0.03963   0.02998  -0.01247
  27       13D 0        0.00113  -0.02321   0.01146  -0.05469   0.00352
  28       13D+1       -0.00654  -0.01234  -0.00873  -0.00051   0.00561
  29       13D-1        0.02030  -0.00215   0.00462  -0.00378  -0.02529
  30       13D+2        0.00172   0.01434   0.01759  -0.00179   0.00059
  31       13D-2        0.01423   0.06226   0.01901  -0.03207  -0.02645
  32       14D 0        0.04561   0.09635  -0.09286   0.13754  -0.03951
  33       14D+1        0.03616   0.08576   0.06006   0.01061  -0.05028
  34       14D-1       -0.13791   0.03459  -0.02895   0.02245  -0.00354
  35       14D+2        0.00874   0.04295  -0.07494   0.07403  -0.01469
  36       14D-2       -0.14172  -0.19226  -0.00150  -0.01565   0.02630
  37       15F 0        0.00867  -0.00382  -0.00145   0.00081   0.00498
  38       15F+1        0.00468   0.00948   0.00338  -0.00111   0.00142
  39       15F-1       -0.00014   0.00109  -0.00729   0.00833  -0.00033
  40       15F+2        0.00049   0.00132   0.00035   0.00039  -0.00051
  41       15F-2        0.00045   0.00114   0.00102  -0.00069  -0.00191
  42       15F+3       -0.00176   0.00112   0.01008   0.01851   0.00047
  43       15F-3       -0.00266  -0.00169   0.00640   0.01231  -0.00032
  44 2   O  1S         -0.00195   0.01234  -0.00870   0.03229   0.00102
  45        2S         -0.00047  -0.03691   0.02490  -0.09207  -0.00239
  46        2PX        -0.02927  -0.05233  -0.02642   0.05319  -0.01269
  47        2PY         0.00528   0.02948   0.04603   0.07839   0.00896
  48        2PZ        -0.11915   0.05552   0.03062  -0.00740  -0.10241
  49        3S          0.03377  -0.05399   0.04006  -0.16224  -0.00544
  50        3PX        -0.02153  -0.03857  -0.02594   0.03082  -0.01338
  51        3PY         0.00297   0.03216   0.02649   0.03012   0.00652
  52        3PZ        -0.10415   0.04662   0.02779  -0.01131  -0.11626
  53        4D 0        0.00007   0.00051  -0.00108  -0.00135  -0.00044
  54        4D+1       -0.00008   0.00066   0.00042  -0.00006  -0.00261
  55        4D-1       -0.00095   0.00065   0.00020   0.00001  -0.00619
  56        4D+2        0.00019   0.00156   0.00013  -0.00110  -0.00021
  57        4D-2        0.00047   0.00035   0.00071   0.00002   0.00021
  58 3   O  1S         -0.02258  -0.02928   0.00377   0.02596  -0.00142
  59        2S          0.05582   0.07891  -0.00776  -0.06746   0.00438
  60        2PX        -0.00536  -0.03062  -0.06047  -0.07531  -0.00681
  61        2PY        -0.05252  -0.09517   0.06518  -0.03372   0.01430
  62        2PZ        -0.11170   0.06017   0.03223  -0.00022  -0.09798
  63        3S          0.17068   0.20387  -0.04914  -0.17713   0.00685
  64        3PX        -0.01676  -0.06939  -0.04175  -0.05304  -0.00812
  65        3PY        -0.05157  -0.09274   0.05859  -0.02898   0.01560
  66        3PZ        -0.10051   0.06101   0.03086  -0.00156  -0.11792
  67        4D 0        0.00016   0.00052  -0.00056  -0.00190  -0.00023
  68        4D+1        0.00134  -0.00049  -0.00017   0.00035   0.00769
  69        4D-1        0.00292  -0.00193  -0.00129   0.00038   0.00461
  70        4D+2        0.00019  -0.00029   0.00103  -0.00114   0.00035
  71        4D-2       -0.00094  -0.00088   0.00287   0.00116   0.00000
  72 4   H  1S         -0.02298  -0.03510   0.00365   0.02164   0.00027
  73        2S         -0.08519  -0.13072   0.03468   0.04145   0.01546
  74        3PX         0.00166   0.00250  -0.00001  -0.00190   0.00021
  75        3PY         0.00785   0.01306  -0.00475  -0.00005  -0.00035
  76        3PZ        -0.00088   0.00066   0.00022  -0.00019  -0.00255
  77 5   O  1S          0.00275   0.02460   0.03464   0.00736  -0.00594
  78        2S         -0.00539  -0.06121  -0.08926  -0.01347   0.01026
  79        2PX        -0.03458  -0.09512   0.01062   0.04797   0.03622
  80        2PY        -0.01139  -0.03270   0.00885  -0.10487  -0.01898
  81        2PZ        -0.12056  -0.01269  -0.05072  -0.00792  -0.03042
  82        3S         -0.04523  -0.18633  -0.25242  -0.07487   0.06434
  83        3PX        -0.03291  -0.11157  -0.02007   0.05884   0.05548
  84        3PY        -0.00484  -0.00624   0.04838  -0.11033  -0.02776
  85        3PZ        -0.10304  -0.02535  -0.04744  -0.00333  -0.02054
  86        4D 0       -0.00223   0.00133  -0.00082  -0.00050  -0.00256
  87        4D+1       -0.00241  -0.00033   0.00219   0.00150  -0.00772
  88        4D-1        0.00020  -0.00188  -0.00060  -0.00268   0.00689
  89        4D+2       -0.00009   0.00007  -0.00032   0.00195  -0.00026
  90        4D-2       -0.00078  -0.00231  -0.00100  -0.00012   0.00181
  91 6   H  1S         -0.00810   0.03564   0.04011   0.00499  -0.04873
  92        2S          0.01024   0.17053   0.14252  -0.02419  -0.19321
  93        3PX         0.00282   0.00284   0.00460   0.00006  -0.00262
  94        3PY         0.00014  -0.00150  -0.00224  -0.00010   0.00380
  95        3PZ         0.00912   0.00610   0.00718  -0.00084  -0.00059
                          31        32        33        34        35
                           V         V         V         V         V
     Eigenvalues --     0.09776   0.10352   0.11105   0.12998   0.13998
   1 1   Ti 1S         -0.01918  -0.00585   0.00338   0.01348   0.01836
   2        2S         -0.04466  -0.01602   0.00824   0.03408   0.03409
   3        3S         -0.05279  -0.00241   0.00725   0.02755   0.09232
   4        4S          0.17160   0.02348  -0.01616  -0.05900  -0.60059
   5        5S          0.06524  -0.10668  -0.01694  -0.15658   0.64919
   6        6S         -0.01396   0.03059  -0.00346   0.07358  -0.23962
   7        7PX         0.00189  -0.00002   0.00008   0.00271  -0.00144
   8        7PY        -0.00172   0.00030  -0.00012  -0.00138  -0.00203
   9        7PZ         0.00093  -0.00138  -0.00252   0.00064   0.00027
  10        8PX         0.01439  -0.00011   0.00056   0.02071  -0.01107
  11        8PY        -0.01329   0.00218  -0.00089  -0.01054  -0.01552
  12        8PZ         0.00714  -0.01058  -0.01935   0.00489   0.00206
  13        9PX         0.02144  -0.00638   0.00101   0.02239  -0.00965
  14        9PY        -0.00202   0.01032  -0.00834  -0.00063  -0.02198
  15        9PZ         0.00749  -0.00340   0.00042   0.00117  -0.00017
  16       10PX        -0.31649   0.13613  -0.00473  -0.31034   0.33475
  17       10PY        -0.05613  -0.14575   0.12739  -0.12833   0.41564
  18       10PZ        -0.11378   0.07317   0.06342  -0.03599  -0.00656
  19       11PX         0.59750  -0.13083  -0.00504   0.38249  -0.28134
  20       11PY         0.16272   0.30451  -0.15451   0.15208  -0.32787
  21       11PZ         0.19695  -0.08157   0.06634   0.04400  -0.01231
  22       12D 0        0.08133   0.13692  -0.03846  -0.02075   0.02498
  23       12D+1        0.04875  -0.07685  -0.04767  -0.06013   0.01278
  24       12D-1       -0.02246  -0.00058  -0.11254   0.05524   0.01198
  25       12D+2        0.01453  -0.01060  -0.01655   0.03413  -0.13613
  26       12D-2       -0.00477   0.01494  -0.00550  -0.03961   0.01613
  27       13D 0        0.05915   0.08694  -0.02438  -0.05081   0.01489
  28       13D+1        0.04496  -0.07373  -0.03457  -0.04776   0.01775
  29       13D-1       -0.02786   0.01418  -0.09039   0.02900   0.01345
  30       13D+2        0.03589  -0.03557  -0.01926   0.05298  -0.18500
  31       13D-2       -0.05755  -0.02327   0.00069  -0.12128  -0.03110
  32       14D 0       -0.58209  -0.68066   0.23430   0.40428   0.03324
  33       14D+1       -0.42803   0.68953   0.40342   0.49456  -0.12224
  34       14D-1        0.25433  -0.07727   0.96027  -0.38935  -0.12529
  35       14D+2       -0.01157   0.14120   0.11807  -0.09935   1.08011
  36       14D-2        0.35017  -0.10692   0.14896   0.73324   0.27706
  37       15F 0       -0.00065   0.00112   0.00114  -0.00156  -0.00059
  38       15F+1        0.00099  -0.00044  -0.00028  -0.00168  -0.00025
  39       15F-1        0.00434   0.00015  -0.00110   0.00401   0.00045
  40       15F+2       -0.00284   0.00663   0.00951   0.00134  -0.00145
  41       15F-2       -0.00603   0.00579  -0.00702   0.00466  -0.00005
[...]
  70        4D+2        0.00000   0.00000   0.00000   0.00000   0.00000
  71        4D-2        0.00000   0.00000   0.00000   0.00000   0.00000
  72 4   H  1S          0.07831   0.00000   0.01643   0.01070   0.08512
  73        2S          0.02277   0.00000  -0.04029   0.00448   0.04191
  74        3PX         0.00300   0.00000   0.00029   0.00334   0.00139
  75        3PY         0.00488   0.00000   0.00396   0.00106   0.00047
  76        3PZ         0.00000   0.00344   0.00000   0.00000   0.00000
  77 5   O  1S          0.00000   0.00000   0.00000   0.00000   0.00000
  78        2S          0.00000   0.00000   0.00000   0.00000   0.00000
  79        2PX         0.00000   0.00000  -0.00001  -0.00001   0.00000
  80        2PY         0.00000   0.00000   0.00000   0.00000   0.00000
  81        2PZ         0.00000   0.00000   0.00000   0.00000   0.00000
  82        3S          0.00000   0.00000  -0.00004  -0.00012   0.00001
  83        3PX         0.00000   0.00000  -0.00036  -0.00015   0.00007
  84        3PY         0.00000   0.00000  -0.00012  -0.00006  -0.00016
  85        3PZ         0.00000   0.00000   0.00000   0.00000   0.00000
  86        4D 0        0.00000   0.00000   0.00000   0.00000   0.00000
  87        4D+1        0.00000   0.00000   0.00000   0.00000   0.00000
  88        4D-1        0.00000   0.00000   0.00000   0.00000   0.00000
  89        4D+2        0.00000   0.00000   0.00000  -0.00001   0.00000
  90        4D-2        0.00000   0.00000   0.00000   0.00000   0.00000
  91 6   H  1S          0.00000   0.00000   0.00000   0.00000   0.00000
  92        2S          0.00000   0.00000  -0.00001   0.00012   0.00000
  93        3PX         0.00000   0.00000   0.00000   0.00000   0.00000
  94        3PY         0.00000   0.00000   0.00000   0.00000   0.00000
  95        3PZ         0.00000   0.00000   0.00000   0.00000   0.00000
                          66        67        68        69        70
  66        3PZ         0.37247
  67        4D 0        0.00000   0.00027
  68        4D+1        0.00000   0.00000   0.00041
  69        4D-1        0.00000   0.00000   0.00000   0.00033
  70        4D+2        0.00000   0.00000   0.00000   0.00000   0.00078
  71        4D-2        0.00000   0.00000   0.00000   0.00000   0.00000
  72 4   H  1S          0.00000   0.00091   0.00000   0.00000   0.00236
  73        2S          0.00000   0.00007   0.00000   0.00000   0.00027
  74        3PX         0.00000   0.00002   0.00000   0.00000   0.00001
  75        3PY         0.00000   0.00004   0.00000   0.00000   0.00003
  76        3PZ         0.00491   0.00000  -0.00008   0.00020   0.00000
  77 5   O  1S          0.00000   0.00000   0.00000   0.00000   0.00000
  78        2S          0.00000   0.00000   0.00000   0.00000   0.00000
  79        2PX         0.00000   0.00000   0.00000   0.00000   0.00000
  80        2PY         0.00000   0.00000   0.00000   0.00000   0.00000
  81        2PZ         0.00000   0.00000   0.00000   0.00000   0.00000
  82        3S          0.00000   0.00000   0.00000   0.00000   0.00000
  83        3PX         0.00000   0.00000   0.00000   0.00000  -0.00001
  84        3PY         0.00000   0.00000   0.00000   0.00000   0.00000
  85        3PZ         0.00016   0.00000   0.00000   0.00000   0.00000
  86        4D 0        0.00000   0.00000   0.00000   0.00000   0.00000
  87        4D+1        0.00000   0.00000   0.00000   0.00000   0.00000
  88        4D-1        0.00000   0.00000   0.00000   0.00000   0.00000
  89        4D+2        0.00000   0.00000   0.00000   0.00000   0.00000
  90        4D-2        0.00000   0.00000   0.00000   0.00000   0.00000
  91 6   H  1S          0.00000   0.00000   0.00000   0.00000   0.00000
  92        2S          0.00000   0.00000   0.00000   0.00000   0.00000
  93        3PX         0.00000   0.00000   0.00000   0.00000   0.00000
  94        3PY         0.00000   0.00000   0.00000   0.00000   0.00000
  95        3PZ         0.00000   0.00000   0.00000   0.00000   0.00000
                          71        72        73        74        75
  71        4D-2        0.00094
  72 4   H  1S          0.00003   0.20633
  73        2S         -0.00005   0.06254   0.05430
  74        3PX         0.00014   0.00000   0.00000   0.00101
  75        3PY         0.00010   0.00000   0.00000   0.00000   0.00162
  76        3PZ         0.00000   0.00000   0.00000   0.00000   0.00000
  77 5   O  1S          0.00000   0.00000   0.00000   0.00000   0.00000
  78        2S          0.00000   0.00000   0.00000   0.00000   0.00000
  79        2PX         0.00000   0.00000   0.00001   0.00000   0.00000
  80        2PY         0.00000   0.00000   0.00000   0.00000   0.00000
  81        2PZ         0.00000   0.00000   0.00000   0.00000   0.00000
  82        3S          0.00000   0.00000   0.00003   0.00000   0.00000
  83        3PX         0.00000   0.00000   0.00012   0.00000   0.00000
  84        3PY         0.00000   0.00000  -0.00006   0.00000   0.00000
  85        3PZ         0.00000   0.00000   0.00000   0.00000   0.00000
  86        4D 0        0.00000   0.00000   0.00000   0.00000   0.00000
  87        4D+1        0.00000   0.00000   0.00000   0.00000   0.00000
  88        4D-1        0.00000   0.00000   0.00000   0.00000   0.00000
  89        4D+2        0.00000   0.00000   0.00000   0.00000   0.00000
  90        4D-2        0.00000   0.00000   0.00000   0.00000   0.00000
  91 6   H  1S          0.00000   0.00000   0.00000   0.00000   0.00000
  92        2S          0.00000   0.00000   0.00001   0.00000   0.00000
  93        3PX         0.00000   0.00000   0.00000   0.00000   0.00000
  94        3PY         0.00000   0.00000   0.00000   0.00000   0.00000
  95        3PZ         0.00000   0.00000   0.00000   0.00000   0.00000
                          76        77        78        79        80
  76        3PZ         0.00085
  77 5   O  1S          0.00000   2.08331
  78        2S          0.00000  -0.03925   0.49427
  79        2PX         0.00000   0.00000   0.00000   0.58171
  80        2PY         0.00000   0.00000   0.00000   0.00000   0.72514
  81        2PZ         0.00000   0.00000   0.00000   0.00000   0.00000
  82        3S          0.00000  -0.04620   0.41202   0.00000   0.00000
  83        3PX         0.00000   0.00000   0.00000   0.16616   0.00000
  84        3PY         0.00000   0.00000   0.00000   0.00000   0.25583
  85        3PZ         0.00000   0.00000   0.00000   0.00000   0.00000
  86        4D 0        0.00000   0.00000   0.00000   0.00000   0.00000
  87        4D+1        0.00000   0.00000   0.00000   0.00000   0.00000
  88        4D-1        0.00000   0.00000   0.00000   0.00000   0.00000
  89        4D+2        0.00000   0.00000   0.00000   0.00000   0.00000
  90        4D-2        0.00000   0.00000   0.00000   0.00000   0.00000
  91 6   H  1S          0.00000  -0.00155   0.02297   0.08174   0.00820
  92        2S          0.00000   0.00084  -0.00882   0.02280   0.00236
  93        3PX         0.00000  -0.00063   0.00562   0.00590   0.00216
  94        3PY         0.00000  -0.00008   0.00076   0.00190   0.00186
  95        3PZ         0.00000   0.00000   0.00000   0.00000   0.00000
                          81        82        83        84        85
  81        2PZ         0.70254
  82        3S          0.00000   0.61881
  83        3PX         0.00000   0.00000   0.19461
  84        3PY         0.00000   0.00000   0.00000   0.36008
  85        3PZ         0.25679   0.00000   0.00000   0.00000   0.37327
  86        4D 0        0.00000   0.00000   0.00000   0.00000   0.00000
  87        4D+1        0.00000   0.00000   0.00000   0.00000   0.00000
  88        4D-1        0.00000   0.00000   0.00000   0.00000   0.00000
  89        4D+2        0.00000   0.00000   0.00000   0.00000   0.00000
  90        4D-2        0.00000   0.00000   0.00000   0.00000   0.00000
  91 6   H  1S          0.00000   0.01704   0.08678   0.01019   0.00000
  92        2S          0.00000  -0.04138   0.04180   0.00476   0.00000
  93        3PX         0.00000   0.00370   0.00064   0.00109   0.00000
  94        3PY         0.00000   0.00060   0.00085   0.00344   0.00000
  95        3PZ         0.00340   0.00000   0.00000   0.00000   0.00485
                          86        87        88        89        90
  86        4D 0        0.00026
  87        4D+1        0.00000   0.00002
  88        4D-1        0.00000   0.00000   0.00068
  89        4D+2        0.00000   0.00000   0.00000   0.00093
  90        4D-2        0.00000   0.00000   0.00000   0.00000   0.00069
  91 6   H  1S          0.00091   0.00000   0.00000   0.00069   0.00166
  92        2S          0.00006   0.00000   0.00000   0.00003   0.00020
  93        3PX         0.00006   0.00000   0.00000   0.00000   0.00008
  94        3PY        -0.00001   0.00000   0.00000   0.00021  -0.00005
  95        3PZ         0.00000   0.00001   0.00009   0.00000   0.00000
                          91        92        93        94        95
  91 6   H  1S          0.20499
  92        2S          0.06072   0.05507
  93        3PX         0.00000   0.00000   0.00170
  94        3PY         0.00000   0.00000   0.00000   0.00089
  95        3PZ         0.00000   0.00000   0.00000   0.00000   0.00083
     Gross orbital populations:
                           1
   1 1   Ti 1S         -0.30323
   2        2S          1.32446
   3        3S          0.98539
   4        4S          0.08421
   5        5S          0.01443
   6        6S         -0.00303
   7        7PX        -0.07582
   8        7PY        -0.07436
   9        7PZ        -0.07253
  10        8PX         1.42386
  11        8PY         1.40293
  12        8PZ         1.38025
  13        9PX         0.67665
  14        9PY         0.68422
  15        9PZ         0.69976
  16       10PX         0.07124
  17       10PY         0.05390
  18       10PZ         0.16144
  19       11PX         0.01039
  20       11PY         0.01479
  21       11PZ         0.00427
  22       12D 0        0.21480
  23       12D+1        0.17482
  24       12D-1        0.32760
  25       12D+2        0.47156
  26       12D-2        0.36774
  27       13D 0        0.01966
  28       13D+1        0.12563
  29       13D-1        0.17372
  30       13D+2        0.10740
  31       13D-2        0.17036
  32       14D 0        0.00613
  33       14D+1        0.04334
  34       14D-1        0.02827
  35       14D+2        0.05155
  36       14D-2        0.03430
  37       15F 0        0.00854
  38       15F+1        0.00556
  39       15F-1        0.00610
  40       15F+2        0.00906
  41       15F-2        0.00478
  42       15F+3        0.02076
  43       15F-3        0.01882
  44 2   O  1S          1.99748
  45        2S          0.93606
  46        2PX         0.95374
  47        2PY         0.96528
  48        2PZ         0.87420
  49        3S          1.02310
  50        3PX         0.62717
  51        3PY         0.47587
  52        3PZ         0.59691
  53        4D 0        0.00128
  54        4D+1        0.00012
  55        4D-1        0.00600
  56        4D+2        0.00372
  57        4D-2        0.00517
  58 3   O  1S          1.99698
  59        2S          0.89399
  60        2PX         1.01526
  61        2PY         0.89599
  62        2PZ         0.98759
  63        3S          0.97367
  64        3PX         0.65407
  65        3PY         0.53769
  66        3PZ         0.72425
  67        4D 0        0.00152
  68        4D+1        0.00146
  69        4D-1        0.00026
  70        4D+2        0.00442
  71        4D-2        0.00221
  72 4   H  1S          0.48820
  73        2S          0.12957
  74        3PX         0.01167
  75        3PY         0.01955
  76        3PZ         0.00973
  77 5   O  1S          1.99699
  78        2S          0.89439
  79        2PX         0.88000
  80        2PY         1.02680
  81        2PZ         0.99377
  82        3S          0.97304
  83        3PX         0.49146
  84        3PY         0.69225
  85        3PZ         0.72542
  86        4D 0        0.00161
  87        4D+1        0.00017
  88        4D-1        0.00156
  89        4D+2        0.00330
  90        4D-2        0.00331
  91 6   H  1S          0.48583
  92        2S          0.12158
  93        3PX         0.02022
  94        3PY         0.01076
  95        3PZ         0.00961
          Condensed to atoms (all electrons):
 Mulliken atomic charges:
              1
     1  Ti   1.146275
     2  O   -0.466100
     3  O   -0.689376
     4  H    0.341270
     5  O   -0.684075
     6  H    0.352005
 Sum of Mulliken atomic charges =   0.00000
 Mulliken charges with hydrogens summed into heavy atoms:
              1
     1  Ti   1.146275
     2  O   -0.466100
     3  O   -0.348106
     5  O   -0.332070
 Sum of Mulliken charges with hydrogens summed into heavy atoms =   0.00000
 Electronic spatial extent (au):  <R**2>=            382.6566
 Charge=              0.0000 electrons
 Dipole moment (field-independent basis, Debye):
    X=              0.9699    Y=             -3.1403    Z=              0.0027  Tot=              3.2866
 Orbital energies and kinetic energies (alpha):
                                 1                 2
   1         O               -19.148963         29.121023
   2         O               -19.139406         29.121104
   3         O               -19.118134         29.125731
   4         O                -2.495647          1.495679
   5         O                -1.538242          2.349396
   6         O                -1.530681          2.445991
   7         O                -1.530347          2.387875
   8         O                -0.984324          2.729028
   9         O                -0.971548          2.766987
  10         O                -0.868234          3.146754
  11         O                -0.503714          2.097702
  12         O                -0.490737          2.159373
  13         O                -0.365651          2.385007
  14         O                -0.353070          2.198056
  15         O                -0.352689          2.299535
  16         O                -0.344325          2.249312
  17         O                -0.324236          2.714641
  18         O                -0.324041          2.160846
  19         O                -0.300890          2.360105
  20         V                -0.102819          2.390665
  21         V                -0.063223          3.950595
  22         V                -0.036201          3.757942
  23         V                -0.014481          0.675901
  24         V                 0.006008          1.687483
  25         V                 0.019623          2.291587
  26         V                 0.020253          0.412308
  27         V                 0.027451          1.973418
  28         V                 0.038194          1.855785
  29         V                 0.053169          0.747783
  30         V                 0.107169          0.755668
  31         V                 0.115269          0.399448
  32         V                 0.120813          0.541223
  33         V                 0.127130          0.533070
  34         V                 0.127153          0.644789
  35         V                 0.142079          0.514945
  36         V                 0.185753          0.975197
  37         V                 0.190226          1.309182
  38         V                 0.231857          1.302846
  39         V                 0.239004          1.677719
  40         V                 0.240374          1.274267
  41         V                 0.515061          2.059205
  42         V                 0.534521          2.414874
  43         V                 0.541101          2.354471
  44         V                 0.542130          2.141082
  45         V                 0.566302          2.182229
  46         V                 0.862609          2.621408
  47         V                 0.886815          2.821166
  48         V                 0.940757          3.086540
  49         V                 0.969003          3.277338
  50         V                 0.982750          3.617101
  51         V                 0.998290          3.576662
  52         V                 1.006085          3.417282
  53         V                 1.061167          3.594035
  54         V                 1.087568          3.428627
  55         V                 1.183244          2.948773
  56         V                 1.192408          2.859149
  57         V                 1.200275          3.302404
  58         V                 1.249161          2.225556
  59         V                 1.266122          3.125812
  60         V                 1.293735          2.598144
  61         V                 1.330583          3.213949
  62         V                 1.348123          2.889858
  63         V                 1.357339          2.501184
  64         V                 1.455949          2.950950
  65         V                 1.503322          3.346300
  66         V                 1.519626          3.302564
  67         V                 1.549321          3.049722
  68         V                 1.580101          3.052183
  69         V                 1.637338          2.647561
  70         V                 1.677984          2.694834
  71         V                 1.715334          3.467990
  72         V                 1.823140          2.991216
  73         V                 1.894086          3.870044
  74         V                 1.895642          2.922410
  75         V                 1.932889          3.210801
  76         V                 2.034908          3.584850
  77         V                 2.106077          3.219561
  78         V                 2.107918          3.243336
  79         V                 2.185951          3.484146
  80         V                 2.338065          3.849031
  81         V                 2.345210          3.548486
  82         V                 2.422011          3.917185
  83         V                 2.459065          3.858655
  84         V                 2.623980          4.069232
  85         V                 2.649448          3.628851
  86         V                 2.655651          3.629772
  87         V                 2.800961          4.721339
  88         V                 2.851629          4.432495
  89         V                 2.917173          4.413756
  90         V                 3.472502          5.533691
  91         V                 3.534938          5.589834
  92         V                24.217936         22.473527
  93         V                24.645854         22.835076
  94         V                24.679732         22.870159
  95         V                35.553249         11.847423
 Total kinetic energy from orbitals= 2.506282866058D+02

 Test job not archived.
 1\1\GINC-TITAN11\FOpt\RB3PW91\GenECP\H2O3Ti1\OHNISHI\26-Oct-2016\0\\#T
  B3PW91/GenECP SCFCon=7 SCFCyc=250 GFInput GFOldPrint Opt=(MaxCyc=60) 
 Integral=(Grid=UltraFine) Pop=Regular Pseudo=Read IOp(1/33=0,2/11=1,3/
 27=8,6/7=3)\\TiO2 1-3\\0,1\Ti,-0.2404966726,0.240832798,-0.3064014739\
 O,-1.0243843367,-1.1655642194,-0.2401158912\O,-1.2707499252,1.73457550
 3,-0.0710681218\H,-1.0425954573,2.6688076466,-0.0667151347\O,1.5528475
 153,0.1918867706,-0.6015175141\H,2.1301319465,-0.5673396688,-0.7292725
 942\\Version=AM64L-G09RevC.01\State=1-A\HF=-285.284755\RMSD=4.830e-08\
 RMSF=4.417e-06\Dipole=1.0082165,0.7990475,-0.1305033\Quadrupole=-2.551
 8964,0.5432464,2.00865,-3.7597725,0.5929287,0.5474255\PG=C01 [X(H2O3Ti
 1)]\\@


 FROM AN ANONYMOUS WRITER, ON PERSPECTIVE:

 MAN, DESPITE HIS ARTISTIC PRETENSIONS, HIS SOPHISTICATION AND MANY 
 ACCOMPLISHMENTS, OWES THE FACT OF HIS EXISTENCE TO A SIX-INCH LAYER OF 
 TOPSOIL AND THE FACT THAT IT RAINS.
 Job cpu time:  0 days  0 hours  2 minutes 38.0 seconds.
 File lengths (MBytes):  RWF=     10 Int=      0 D2E=      0 Chk=      2 Scr=      1
 Normal termination of Gaussian 09 at Wed Oct 26 16:47:21 2016.
real 164.61
user 140.64
sys 17.43
