 Running on titan12
 Entering Gaussian System, Link 0=g09
 Initial command:
 /opt/qcapps/g09/l1.exe /work/ohnishi/1477471311/Gau-24152.inp -scrdir=/work/ohnishi/1477471311/
 Entering Link 1 = /opt/qcapps/g09/l1.exe PID=     24153.
  
 Copyright (c) 1988,1990,1992,1993,1995,1998,2003,2009,2011,
            Gaussian, Inc.  All Rights Reserved.
  
 This is part of the Gaussian(R) 09 program.  It is based on
 the Gaussian(R) 03 system (copyright 2003, Gaussian, Inc.),
 the Gaussian(R) 98 system (copyright 1998, Gaussian, Inc.),
 the Gaussian(R) 94 system (copyright 1995, Gaussian, Inc.),
 the Gaussian 92(TM) system (copyright 1992, Gaussian, Inc.),
 the Gaussian 90(TM) system (copyright 1990, Gaussian, Inc.),
 the Gaussian 88(TM) system (copyright 1988, Gaussian, Inc.),
 the Gaussian 86(TM) system (copyright 1986, Carnegie Mellon
 University), and the Gaussian 82(TM) system (copyright 1983,
 Carnegie Mellon University). Gaussian is a federally registered
 trademark of Gaussian, Inc.
  
 This software contains proprietary and confidential information,
 including trade secrets, belonging to Gaussian, Inc.
  
 This software is provided under written license and may be
 used, copied, transmitted, or stored only in accord with that
 written license.
  
 The following legend is applicable only to US Government
 contracts under FAR:
  
                    RESTRICTED RIGHTS LEGEND
  
 Use, reproduction and disclosure by the US Government is
 subject to restrictions as set forth in subparagraphs (a)
 and (c) of the Commercial Computer Software - Restricted
 Rights clause in FAR 52.227-19.
  
 Gaussian, Inc.
 340 Quinnipiac St., Bldg. 40, Wallingford CT 06492
  
  
 ---------------------------------------------------------------
 Warning -- This program may not be used in any manner that
 competes with the business of Gaussian, Inc. or will provide
 assistance to any competitor of Gaussian, Inc.  The licensee
 of this program is prohibited from giving any competitor of
 Gaussian, Inc. access to this program.  By using this program,
 the user acknowledges that Gaussian, Inc. is engaged in the
 business of creating and licensing software in the field of
 computational chemistry and represents and warrants to the
 licensee that it is not a competitor of Gaussian, Inc. and that
 it will not use this program in any manner prohibited above.
 ---------------------------------------------------------------
  

 Cite this work as:
 Gaussian 09, Revision C.01,
 M. J. Frisch, G. W. Trucks, H. B. Schlegel, G. E. Scuseria, 
 M. A. Robb, J. R. Cheeseman, G. Scalmani, V. Barone, B. Mennucci, 
 G. A. Petersson, H. Nakatsuji, M. Caricato, X. Li, H. P. Hratchian, 
 A. F. Izmaylov, J. Bloino, G. Zheng, J. L. Sonnenberg, M. Hada, 
 M. Ehara, K. Toyota, R. Fukuda, J. Hasegawa, M. Ishida, T. Nakajima, 
 Y. Honda, O. Kitao, H. Nakai, T. Vreven, J. A. Montgomery, Jr., 
 J. E. Peralta, F. Ogliaro, M. Bearpark, J. J. Heyd, E. Brothers, 
 K. N. Kudin, V. N. Staroverov, T. Keith, R. Kobayashi, J. Normand, 
 K. Raghavachari, A. Rendell, J. C. Burant, S. S. Iyengar, J. Tomasi, 
 M. Cossi, N. Rega, J. M. Millam, M. Klene, J. E. Knox, J. B. Cross, 
 V. Bakken, C. Adamo, J. Jaramillo, R. Gomperts, R. E. Stratmann, 
 O. Yazyev, A. J. Austin, R. Cammi, C. Pomelli, J. W. Ochterski, 
 R. L. Martin, K. Morokuma, V. G. Zakrzewski, G. A. Voth, 
 P. Salvador, J. J. Dannenberg, S. Dapprich, A. D. Daniels, 
 O. Farkas, J. B. Foresman, J. V. Ortiz, J. Cioslowski, 
 and D. J. Fox, Gaussian, Inc., Wallingford CT, 2010.
 
 ******************************************
 Gaussian 09:  AM64L-G09RevC.01 23-Sep-2011
                26-Oct-2016 
 ******************************************
 %NprocShared=8
 Will use up to    8 processors via shared memory.
 %Mem=51491MB
 ----------------------------------------------------------------------
 #P B3PW91/GenECP SCFCon=7 SCFCyc=250 GFInput GFOldPrint Pseudo=Read Fr
 eq Integral=(Grid=UltraFine) Pop=Regular IOp(1/33=0,2/11=1,3/27=8,6/7=
 3)
 ----------------------------------------------------------------------
 1/10=4,30=1,38=1/1,3;
 2/11=1,12=2,17=6,18=5,40=1/2;
 3/5=7,11=2,16=1,17=8,24=11,25=1,27=8,30=1,71=2,74=-6,75=-5/1,2,3;
 4//1;
 5/5=2,6=7,7=250,38=5,98=1/2;
 8/6=4,10=90,11=11/1;
 11/6=1,8=1,9=11,15=111,16=1/1,2,10;
 10/6=1/2;
 6/7=3,18=1,28=1/1;
 7/8=1,10=1,25=1/1,2,3,16;
 1/10=4,30=1/3;
 99//99;
 Leave Link    1 at Wed Oct 26 17:41:52 2016, MaxMem= 6749028352 cpu:       1.5
 (Enter /opt/qcapps/g09/l101.exe)
 ---------
 Frequency
 ---------
 Charge =  0 Multiplicity = 1
 Symbolic Z-Matrix:
 Ti                    0.0425    0.09745  -0.06173 
 O                     0.91622   1.30298   0.95695 
 H                     0.64275   2.20721   1.13875 
 O                    -1.68501  -0.00867   0.43278 
 H                    -2.14603  -0.7464    0.84247 
 O                     0.84219  -1.50093   0.1327 
 H                     1.1323   -2.10193  -0.56009 
 O                     0.05196   0.60594  -1.79082 
 H                    -0.71514   0.64761  -2.37003 
 
 NAtoms=      9 NQM=        0 NQMF=       0 NMMI=      9 NMMIF=      0
                NMic=       0 NMicF=      0.
                    Isotopes and Nuclear Properties:
 (Nuclear quadrupole moments (NQMom) in fm**2, nuclear magnetic moments (NMagM)
  in nuclear magnetons)

  Atom         1           2           3           4           5           6           7           8           9
 IAtWgt=          48          16           1          16           1          16           1          16           1
 AtmWgt=  47.9479467  15.9949146   1.0078250  15.9949146   1.0078250  15.9949146   1.0078250  15.9949146   1.0078250
 NucSpn=           0           0           1           0           1           0           1           0           1
 AtZEff=   0.0000000   0.0000000   0.0000000   0.0000000   0.0000000   0.0000000   0.0000000   0.0000000   0.0000000
 NQMom=    0.0000000   0.0000000   0.0000000   0.0000000   0.0000000   0.0000000   0.0000000   0.0000000   0.0000000
 NMagM=    0.0000000   0.0000000   2.7928460   0.0000000   2.7928460   0.0000000   2.7928460   0.0000000   2.7928460
 Leave Link  101 at Wed Oct 26 17:41:52 2016, MaxMem= 6749028352 cpu:       0.9
 (Enter /opt/qcapps/g09/l103.exe)

 GradGradGradGradGradGradGradGradGradGradGradGradGradGradGradGradGradGrad
 Berny optimization.
 Initialization pass.
 Trust Radius=3.00D-01 FncErr=1.00D-07 GrdErr=1.00D-07
 Number of steps in this run=      2 maximum allowed number of steps=      2.
 GradGradGradGradGradGradGradGradGradGradGradGradGradGradGradGradGradGrad

 Leave Link  103 at Wed Oct 26 17:41:52 2016, MaxMem= 6749028352 cpu:       0.2
 (Enter /opt/qcapps/g09/l202.exe)
                          Input orientation:                          
 ---------------------------------------------------------------------
 Center     Atomic      Atomic             Coordinates (Angstroms)
 Number     Number       Type             X           Y           Z
 ---------------------------------------------------------------------
      1         22           0        0.042503    0.097451   -0.061733
      2          8           0        0.916219    1.302979    0.956952
      3          1           0        0.642751    2.207214    1.138752
      4          8           0       -1.685008   -0.008674    0.432782
      5          1           0       -2.146028   -0.746401    0.842473
      6          8           0        0.842193   -1.500925    0.132702
      7          1           0        1.132301   -2.101929   -0.560085
      8          8           0        0.051959    0.605939   -1.790820
      9          1           0       -0.715137    0.647607   -2.370028
 ---------------------------------------------------------------------
                    Distance matrix (angstroms):
                    1          2          3          4          5
     1  Ti   0.000000
     2  O    1.803995   0.000000
     3  H    2.500512   0.962017   0.000000
     4  O    1.800028   2.959995   3.290443   0.000000
     5  H    2.513830   3.686519   4.072949   0.961575   0.000000
     6  O    1.797808   2.923482   3.847364   2.950187   3.162680
     7  H    2.504653   3.733831   4.657727   3.647565   3.814717
     8  O    1.802329   2.963623   3.390503   2.887769   3.687032
     9  H    2.490967   3.762928   4.072809   3.037614   3.782971
                    6          7          8          9
     6  O    0.000000
     7  H    0.961937   0.000000
     8  O    2.960284   3.164553   0.000000
     9  H    3.647619   3.774767   0.962109   0.000000
 Stoichiometry    H4O4Ti
 Framework group  C1[X(H4O4Ti)]
 Deg. of freedom    21
 Full point group                 C1      NOp   1
 Largest Abelian subgroup         C1      NOp   1
 Largest concise Abelian subgroup C1      NOp   1
                         Standard orientation:                         
 ---------------------------------------------------------------------
 Center     Atomic      Atomic             Coordinates (Angstroms)
 Number     Number       Type             X           Y           Z
 ---------------------------------------------------------------------
      1         22           0       -0.017152    0.025587   -0.008929
      2          8           0       -1.707491    0.633365   -0.175526
      3          1           0       -2.514250    0.114096   -0.104985
      4          8           0        0.157765   -0.939215    1.500595
      5          1           0        0.671998   -0.732966    2.286504
      6          8           0        1.096307    1.436680    0.024835
      7          1           0        1.892291    1.570829   -0.498364
      8          8           0        0.395678   -1.076369   -1.374087
      9          1           0        0.789226   -1.950576   -1.293238
 ---------------------------------------------------------------------
 Rotational constants (GHZ):      3.3126448      3.2793476      3.1824346
 Leave Link  202 at Wed Oct 26 17:41:52 2016, MaxMem= 6749028352 cpu:       0.0
 (Enter /opt/qcapps/g09/l301.exe)
 General basis read from cards:  (5D, 7F)
 Centers:   1
 SDDAll
 ****
 Centers:   2  4  6  8  3  5  7  9
 6-31G(d,p)
 ****
 ======================================================================================================
                                       Pseudopotential Parameters
 ======================================================================================================
  Center     Atomic      Valence      Angular      Power
  Number     Number     Electrons     Momentum     of R      Exponent        Coefficient   SO-Coeffient
 ======================================================================================================
    1         22           12
                                      F and up 
                                                     2        1.0000000        0.00000000    0.00000000
                                      S - F
                                                     2       13.0100000      158.24159300    0.00000000
                                                     2        5.8620000       17.51182400    0.00000000
                                      P - F
                                                     2       12.4600000       95.23512700    0.00000000
                                                     2        5.2170000       10.04785600    0.00000000
                                      D - F
                                                     2       15.3500000      -17.56886100    0.00000000
                                                     2        4.9800000       -0.58725600    0.00000000
    2          8
                                   No pseudopotential on this center.
    3          1
                                   No pseudopotential on this center.
    4          8
                                   No pseudopotential on this center.
    5          1
                                   No pseudopotential on this center.
    6          8
                                   No pseudopotential on this center.
    7          1
                                   No pseudopotential on this center.
    8          8
                                   No pseudopotential on this center.
    9          1
                                   No pseudopotential on this center.
 ======================================================================================================
 Ernie: Thresh=  0.10000D-02 Tol=  0.10000D-05 Strict=F.
 AO basis set in the form of general basis input (Overlap normalization):
      1 0
 S   3 1.00       0.000000000000
      0.1078036500D+02  0.1783892477D+01
      0.9717013000D+01 -0.2000689535D+01
      0.4507755000D+01 -0.7563332022D+00
 S   1 1.00       0.000000000000
      0.1246708000D+01  0.1000000000D+01
 S   1 1.00       0.000000000000
      0.5087070000D+00  0.1000000000D+01
 S   1 1.00       0.000000000000
      0.7343800000D-01  0.1000000000D+01
 S   1 1.00       0.000000000000
      0.3004800000D-01  0.1000000000D+01
 S   1 1.00       0.000000000000
      0.1000000000D-01  0.1000000000D+01
 P   2 1.00       0.000000000000
      0.1756638100D+02  0.8860101480D-01
      0.7705844000D+01 -0.1070746179D+01
 P   2 1.00       0.000000000000
      0.3329138000D+01  0.2001088977D+00
      0.1308104000D+01  0.8379855716D+00
 P   1 1.00       0.000000000000
      0.4544820000D+00  0.1000000000D+01
 P   1 1.00       0.000000000000
      0.7177200000D-01  0.1000000000D+01
 P   1 1.00       0.000000000000
      0.2378400000D-01  0.1000000000D+01
 D   4 1.00       0.000000000000
      0.1951919400D+02  0.3581400317D-01
      0.5864613000D+01  0.1723730152D+00
      0.1928038000D+01  0.4251360376D+00
      0.6065630000D+00  0.6025950533D+00
 D   1 1.00       0.000000000000
      0.1639610000D+00  0.1000000000D+01
 D   1 1.00       0.000000000000
      0.5000000000D-01  0.1000000000D+01
 F   1 1.00       0.000000000000
      0.5000000000D+00  0.1000000000D+01
 ****
      2 0
 S   6 1.00       0.000000000000
      0.5484671660D+04  0.1831074430D-02
      0.8252349460D+03  0.1395017220D-01
      0.1880469580D+03  0.6844507810D-01
      0.5296450000D+02  0.2327143360D+00
      0.1689757040D+02  0.4701928980D+00
      0.5799635340D+01  0.3585208530D+00
 SP   3 1.00       0.000000000000
      0.1553961625D+02 -0.1107775495D+00  0.7087426823D-01
      0.3599933586D+01 -0.1480262627D+00  0.3397528391D+00
      0.1013761750D+01  0.1130767015D+01  0.7271585773D+00
 SP   1 1.00       0.000000000000
      0.2700058226D+00  0.1000000000D+01  0.1000000000D+01
 D   1 1.00       0.000000000000
      0.8000000000D+00  0.1000000000D+01
 ****
      3 0
 S   3 1.00       0.000000000000
      0.1873113696D+02  0.3349460434D-01
      0.2825394365D+01  0.2347269535D+00
      0.6401216923D+00  0.8137573261D+00
 S   1 1.00       0.000000000000
      0.1612777588D+00  0.1000000000D+01
 P   1 1.00       0.000000000000
      0.1100000000D+01  0.1000000000D+01
 ****
      4 0
 S   6 1.00       0.000000000000
      0.5484671660D+04  0.1831074430D-02
      0.8252349460D+03  0.1395017220D-01
      0.1880469580D+03  0.6844507810D-01
      0.5296450000D+02  0.2327143360D+00
      0.1689757040D+02  0.4701928980D+00
      0.5799635340D+01  0.3585208530D+00
 SP   3 1.00       0.000000000000
      0.1553961625D+02 -0.1107775495D+00  0.7087426823D-01
      0.3599933586D+01 -0.1480262627D+00  0.3397528391D+00
      0.1013761750D+01  0.1130767015D+01  0.7271585773D+00
 SP   1 1.00       0.000000000000
      0.2700058226D+00  0.1000000000D+01  0.1000000000D+01
 D   1 1.00       0.000000000000
      0.8000000000D+00  0.1000000000D+01
 ****
      5 0
 S   3 1.00       0.000000000000
      0.1873113696D+02  0.3349460434D-01
      0.2825394365D+01  0.2347269535D+00
      0.6401216923D+00  0.8137573261D+00
 S   1 1.00       0.000000000000
      0.1612777588D+00  0.1000000000D+01
 P   1 1.00       0.000000000000
      0.1100000000D+01  0.1000000000D+01
 ****
      6 0
 S   6 1.00       0.000000000000
      0.5484671660D+04  0.1831074430D-02
      0.8252349460D+03  0.1395017220D-01
      0.1880469580D+03  0.6844507810D-01
      0.5296450000D+02  0.2327143360D+00
      0.1689757040D+02  0.4701928980D+00
      0.5799635340D+01  0.3585208530D+00
 SP   3 1.00       0.000000000000
      0.1553961625D+02 -0.1107775495D+00  0.7087426823D-01
      0.3599933586D+01 -0.1480262627D+00  0.3397528391D+00
      0.1013761750D+01  0.1130767015D+01  0.7271585773D+00
 SP   1 1.00       0.000000000000
      0.2700058226D+00  0.1000000000D+01  0.1000000000D+01
 D   1 1.00       0.000000000000
      0.8000000000D+00  0.1000000000D+01
 ****
      7 0
 S   3 1.00       0.000000000000
      0.1873113696D+02  0.3349460434D-01
      0.2825394365D+01  0.2347269535D+00
      0.6401216923D+00  0.8137573261D+00
 S   1 1.00       0.000000000000
      0.1612777588D+00  0.1000000000D+01
 P   1 1.00       0.000000000000
      0.1100000000D+01  0.1000000000D+01
 ****
      8 0
 S   6 1.00       0.000000000000
      0.5484671660D+04  0.1831074430D-02
      0.8252349460D+03  0.1395017220D-01
      0.1880469580D+03  0.6844507810D-01
      0.5296450000D+02  0.2327143360D+00
      0.1689757040D+02  0.4701928980D+00
      0.5799635340D+01  0.3585208530D+00
 SP   3 1.00       0.000000000000
      0.1553961625D+02 -0.1107775495D+00  0.7087426823D-01
      0.3599933586D+01 -0.1480262627D+00  0.3397528391D+00
      0.1013761750D+01  0.1130767015D+01  0.7271585773D+00
 SP   1 1.00       0.000000000000
      0.2700058226D+00  0.1000000000D+01  0.1000000000D+01
 D   1 1.00       0.000000000000
      0.8000000000D+00  0.1000000000D+01
 ****
      9 0
 S   3 1.00       0.000000000000
      0.1873113696D+02  0.3349460434D-01
      0.2825394365D+01  0.2347269535D+00
      0.6401216923D+00  0.8137573261D+00
 S   1 1.00       0.000000000000
      0.1612777588D+00  0.1000000000D+01
 P   1 1.00       0.000000000000
      0.1100000000D+01  0.1000000000D+01
 ****

 ***********************************************************************************************************************************
 *             ATOMIC CENTER             *        ATOMIC ORBITAL       *                     GAUSSIAN FUNCTIONS                    *
 ***********************************************************************************************************************************
 *                                       * FUNCTION    SHELL    SCALE  *                                                           *
 *    ATOM   X-COORD  Y-COORD  Z-COORD   *  NUMBER     TYPE     FACTOR *  EXPONENT    S-COEF      P-COEF      D-COEF      F-COEF   *
 ***********************************************************************************************************************************
 *     Ti    -0.03241  0.04835 -0.01687                                                                                            *
+                                                1   S           1.00                                                               
+                                                                      0.107804D+020.756404D+010.000000D+000.000000D+000.000000D+00 
 *                                                                     0.971701D+01-.784765D+010.000000D+000.000000D+000.000000D+00*
 *                                                                     0.450776D+01-.166761D+010.000000D+000.000000D+000.000000D+00*
 *                                               2   S           1.00                                                              *
+                                                                      0.124671D+010.840879D+000.000000D+000.000000D+000.000000D+00 
 *                                               3   S           1.00                                                              *
+                                                                      0.508707D+000.429300D+000.000000D+000.000000D+000.000000D+00 
 *                                               4   S           1.00                                                              *
+                                                                      0.734380D-010.100543D+000.000000D+000.000000D+000.000000D+00 
 *                                               5   S           1.00                                                              *
+                                                                      0.300480D-010.514365D-010.000000D+000.000000D+000.000000D+00 
 *                                               6   S           1.00                                                              *
+                                                                      0.100000D-010.225377D-010.000000D+000.000000D+000.000000D+00 
 *                                           7-  9   P           1.00                                                              *
+                                                                      0.175664D+020.000000D+000.454184D+010.000000D+000.000000D+00 
 *                                                                     0.770584D+010.000000D+00-.195953D+020.000000D+000.000000D+00*
 *                                          10- 12   P           1.00                                                              *
+                                                                      0.332914D+010.000000D+000.128269D+010.000000D+000.000000D+00 
 *                                                                     0.130810D+010.000000D+000.167101D+010.000000D+000.000000D+00*
 *                                          13- 15   P           1.00                                                              *
+                                                                      0.454482D+000.000000D+000.531907D+000.000000D+000.000000D+00 
 *                                          16- 18   P           1.00                                                              *
+                                                                      0.717720D-010.000000D+000.529522D-010.000000D+000.000000D+00 
 *                                          19- 21   P           1.00                                                              *
+                                                                      0.237840D-010.000000D+000.133136D-010.000000D+000.000000D+00 
 *                                          22- 26   D           1.00                                                              *
+                                                                      0.195192D+020.000000D+000.000000D+000.106849D+020.000000D+00 
 *                                                                     0.586461D+010.000000D+000.000000D+000.627043D+010.000000D+00*
 *                                                                     0.192804D+010.000000D+000.000000D+000.220744D+010.000000D+00*
 *                                                                     0.606563D+000.000000D+000.000000D+000.413493D+000.000000D+00*
 *                                          27- 31   D           1.00                                                              *
+                                                                      0.163961D+000.000000D+000.000000D+000.695353D-010.000000D+00 
 *                                          32- 36   D           1.00                                                              *
+                                                                      0.500000D-010.000000D+000.000000D+000.870176D-020.000000D+00 
 *                                          31- 43   F           1.00                                                              *
+                                                                      0.500000D+000.000000D+000.000000D+000.000000D+000.309483D+00 
 *---------------------------------------------------------------------------------------------------------------------------------*
 *     O     -3.22669  1.19689 -0.33170                                                                                            *
+                                               44   S           1.00                                                               
+                                                                      0.548467D+040.831724D+000.000000D+000.000000D+000.000000D+00 
 *                                                                     0.825235D+030.153082D+010.000000D+000.000000D+000.000000D+00*
 *                                                                     0.188047D+030.247715D+010.000000D+000.000000D+000.000000D+00*
 *                                                                     0.529645D+020.325628D+010.000000D+000.000000D+000.000000D+00*
 *                                                                     0.168976D+020.279289D+010.000000D+000.000000D+000.000000D+00*
 *                                                                     0.579964D+010.954938D+000.000000D+000.000000D+000.000000D+00*
 *                                          45- 48   SP          1.00                                                              *
+                                                                      0.155396D+02-.617934D+000.311694D+010.000000D+000.000000D+00 
 *                                                                     0.359993D+01-.275721D+000.240144D+010.000000D+000.000000D+00*
 *                                                                     0.101376D+010.814208D+000.105436D+010.000000D+000.000000D+00*
 *                                          49- 52   SP          1.00                                                              *
+                                                                      0.270006D+000.266956D+000.277432D+000.000000D+000.000000D+00 
 *                                          53- 57   D           1.00                                                              *
+                                                                      0.800000D+000.000000D+000.000000D+000.111382D+010.000000D+00 
 *---------------------------------------------------------------------------------------------------------------------------------*
 *     H     -4.75124  0.21561 -0.19839                                                                                            *
+                                               58   S           1.00                                                               
+                                                                      0.187311D+020.214935D+000.000000D+000.000000D+000.000000D+00 
 *                                                                     0.282539D+010.364571D+000.000000D+000.000000D+000.000000D+00*
 *                                                                     0.640122D+000.415051D+000.000000D+000.000000D+000.000000D+00*
 *                                              59   S           1.00                                                              *
+                                                                      0.161278D+000.181381D+000.000000D+000.000000D+000.000000D+00 
 *                                          60- 62   P           1.00                                                              *
+                                                                      0.110000D+010.000000D+000.160576D+010.000000D+000.000000D+00 
 *---------------------------------------------------------------------------------------------------------------------------------*
 *     O      0.29813 -1.77486  2.83571                                                                                            *
+                                               63   S           1.00                                                               
+                                                                      0.548467D+040.831724D+000.000000D+000.000000D+000.000000D+00 
 *                                                                     0.825235D+030.153082D+010.000000D+000.000000D+000.000000D+00*
 *                                                                     0.188047D+030.247715D+010.000000D+000.000000D+000.000000D+00*
 *                                                                     0.529645D+020.325628D+010.000000D+000.000000D+000.000000D+00*
 *                                                                     0.168976D+020.279289D+010.000000D+000.000000D+000.000000D+00*
 *                                                                     0.579964D+010.954938D+000.000000D+000.000000D+000.000000D+00*
 *                                          64- 67   SP          1.00                                                              *
+                                                                      0.155396D+02-.617934D+000.311694D+010.000000D+000.000000D+00 
 *                                                                     0.359993D+01-.275721D+000.240144D+010.000000D+000.000000D+00*
 *                                                                     0.101376D+010.814208D+000.105436D+010.000000D+000.000000D+00*
 *                                          68- 71   SP          1.00                                                              *
+                                                                      0.270006D+000.266956D+000.277432D+000.000000D+000.000000D+00 
 *                                          72- 76   D           1.00                                                              *
+                                                                      0.800000D+000.000000D+000.000000D+000.111382D+010.000000D+00 
 *---------------------------------------------------------------------------------------------------------------------------------*
 *     H      1.26989 -1.38510  4.32087                                                                                            *
+                                               77   S           1.00                                                               
+                                                                      0.187311D+020.214935D+000.000000D+000.000000D+000.000000D+00 
 *                                                                     0.282539D+010.364571D+000.000000D+000.000000D+000.000000D+00*
 *                                                                     0.640122D+000.415051D+000.000000D+000.000000D+000.000000D+00*
 *                                              78   S           1.00                                                              *
+                                                                      0.161278D+000.181381D+000.000000D+000.000000D+000.000000D+00 
 *                                          79- 81   P           1.00                                                              *
+                                                                      0.110000D+010.000000D+000.160576D+010.000000D+000.000000D+00 
 *---------------------------------------------------------------------------------------------------------------------------------*
 *     O      2.07172  2.71493  0.04693                                                                                            *
+                                               82   S           1.00                                                               
+                                                                      0.548467D+040.831724D+000.000000D+000.000000D+000.000000D+00 
 *                                                                     0.825235D+030.153082D+010.000000D+000.000000D+000.000000D+00*
 *                                                                     0.188047D+030.247715D+010.000000D+000.000000D+000.000000D+00*
 *                                                                     0.529645D+020.325628D+010.000000D+000.000000D+000.000000D+00*
 *                                                                     0.168976D+020.279289D+010.000000D+000.000000D+000.000000D+00*
 *                                                                     0.579964D+010.954938D+000.000000D+000.000000D+000.000000D+00*
 *                                          83- 86   SP          1.00                                                              *
+                                                                      0.155396D+02-.617934D+000.311694D+010.000000D+000.000000D+00 
 *                                                                     0.359993D+01-.275721D+000.240144D+010.000000D+000.000000D+00*
 *                                                                     0.101376D+010.814208D+000.105436D+010.000000D+000.000000D+00*
 *                                          87- 90   SP          1.00                                                              *
+                                                                      0.270006D+000.266956D+000.277432D+000.000000D+000.000000D+00 
 *                                          91- 95   D           1.00                                                              *
+                                                                      0.800000D+000.000000D+000.000000D+000.111382D+010.000000D+00 
 *---------------------------------------------------------------------------------------------------------------------------------*
 *     H      3.57591  2.96844 -0.94177                                                                                            *
+                                               96   S           1.00                                                               
+                                                                      0.187311D+020.214935D+000.000000D+000.000000D+000.000000D+00 
 *                                                                     0.282539D+010.364571D+000.000000D+000.000000D+000.000000D+00*
 *                                                                     0.640122D+000.415051D+000.000000D+000.000000D+000.000000D+00*
 *                                              97   S           1.00                                                              *
+                                                                      0.161278D+000.181381D+000.000000D+000.000000D+000.000000D+00 
 *                                          98-100   P           1.00                                                              *
+                                                                      0.110000D+010.000000D+000.160576D+010.000000D+000.000000D+00 
 *---------------------------------------------------------------------------------------------------------------------------------*
 *     O      0.74772 -2.03404 -2.59665                                                                                            *
+                                              101   S           1.00                                                               
+                                                                      0.548467D+040.831724D+000.000000D+000.000000D+000.000000D+00 
 *                                                                     0.825235D+030.153082D+010.000000D+000.000000D+000.000000D+00*
 *                                                                     0.188047D+030.247715D+010.000000D+000.000000D+000.000000D+00*
 *                                                                     0.529645D+020.325628D+010.000000D+000.000000D+000.000000D+00*
 *                                                                     0.168976D+020.279289D+010.000000D+000.000000D+000.000000D+00*
 *                                                                     0.579964D+010.954938D+000.000000D+000.000000D+000.000000D+00*
 *                                         102-105   SP          1.00                                                              *
+                                                                      0.155396D+02-.617934D+000.311694D+010.000000D+000.000000D+00 
 *                                                                     0.359993D+01-.275721D+000.240144D+010.000000D+000.000000D+00*
 *                                                                     0.101376D+010.814208D+000.105436D+010.000000D+000.000000D+00*
 *                                         106-109   SP          1.00                                                              *
+                                                                      0.270006D+000.266956D+000.277432D+000.000000D+000.000000D+00 
 *                                         110-114   D           1.00                                                              *
+                                                                      0.800000D+000.000000D+000.000000D+000.111382D+010.000000D+00 
 *---------------------------------------------------------------------------------------------------------------------------------*
 *     H      1.49142 -3.68605 -2.44387                                                                                            *
+                                              115   S           1.00                                                               
+                                                                      0.187311D+020.214935D+000.000000D+000.000000D+000.000000D+00 
 *                                                                     0.282539D+010.364571D+000.000000D+000.000000D+000.000000D+00*
 *                                                                     0.640122D+000.415051D+000.000000D+000.000000D+000.000000D+00*
 *                                             116   S           1.00                                                              *
+                                                                      0.161278D+000.181381D+000.000000D+000.000000D+000.000000D+00 
 *                                         117-119   P           1.00                                                              *
+                                                                      0.110000D+010.000000D+000.160576D+010.000000D+000.000000D+00 
 ***********************************************************************************************************************************
 There are   119 symmetry adapted basis functions of A   symmetry.
 Integral buffers will be    131072 words long.
 Raffenetti 2 integral format.
 Two-electron integral symmetry is turned on.
   119 basis functions,   215 primitive gaussians,   129 cartesian basis functions
    24 alpha electrons       24 beta electrons
       nuclear repulsion energy       225.0570273417 Hartrees.
 IExCor=  408 DFT=T Ex+Corr=B3PW91 ExCW=0 ScaHFX=  0.200000
 ScaDFX=  0.800000  0.720000  1.000000  0.810000 ScalE2=  1.000000  1.000000
 IRadAn=      5 IRanWt=     -1 IRanGd=            0 ICorTp=0
 NAtoms=    9 NActive=    9 NUniq=    9 SFac= 1.00D+00 NAtFMM=   60 NAOKFM=F Big=F
 Leave Link  301 at Wed Oct 26 17:41:52 2016, MaxMem= 6749028352 cpu:       0.7
 (Enter /opt/qcapps/g09/l302.exe)
 NPDir=0 NMtPBC=     1 NCelOv=     1 NCel=       1 NClECP=     1 NCelD=      1
         NCelK=      1 NCelE2=     1 NClLst=     1 CellRange=     0.0.
 One-electron integrals computed using PRISM.
   1 Symmetry operations used in ECPInt.
 ECPInt:  NShTT=     946 NPrTT=    3836 LenC2=     941 LenP2D=    3057.
 LDataN:  DoStor=T MaxTD1= 6 Len=  172
 NBasis=   119 RedAO= T  NBF=   119
 NBsUse=   119 1.00D-06 NBFU=   119
 Precomputing XC quadrature grid using
 IXCGrd= 2 IRadAn=           5 IRanWt=          -1 IRanGd=           0 AccXCQ= 0.00D+00.
 NRdTot=     784 NPtTot=      219994 NUsed=      225612 NTot=      225644
 NSgBfM=   129   129   129   129   129 NAtAll=     9     9.
 Leave Link  302 at Wed Oct 26 17:41:52 2016, MaxMem= 6749028352 cpu:       2.2
 (Enter /opt/qcapps/g09/l303.exe)
 DipDrv:  MaxL=1.
 Leave Link  303 at Wed Oct 26 17:41:52 2016, MaxMem= 6749028352 cpu:       0.3
 (Enter /opt/qcapps/g09/l401.exe)
 Harris functional with IExCor=  408 diagonalized for initial guess.
 ExpMin= 1.00D-02 ExpMax= 5.48D+03 ExpMxC= 8.25D+02 IAcc=3 IRadAn=         5 AccDes= 0.00D+00
 HarFok:  IExCor=  408 AccDes= 0.00D+00 IRadAn=         5 IDoV= 1
 ScaDFX=  1.000000  1.000000  1.000000  1.000000
 FoFCou: FMM=F IPFlag=           0 FMFlag=      100000 FMFlg1=           0
         NFxFlg=           0 DoJE=T BraDBF=F KetDBF=T FulRan=T
         Omega=  0.000000  0.000000  1.000000  0.000000  0.000000 ICntrl=     500 IOpCl=  0
         NMat0=    1 NMatS0=    1 NMatT0=    0 NMatD0=    1 NMtDS0=    0 NMtDT0=    0
         I1Cent=           4 NGrid=           0.
 Petite list used in FoFCou.
 Harris En= -362.085617571792    
 Initial guess orbital symmetries:
       Occupied  (A) (A) (A) (A) (A) (A) (A) (A) (A) (A) (A) (A)
                 (A) (A) (A) (A) (A) (A) (A) (A) (A) (A) (A) (A)
       Virtual   (A) (A) (A) (A) (A) (A) (A) (A) (A) (A) (A) (A)
                 (A) (A) (A) (A) (A) (A) (A) (A) (A) (A) (A) (A)
                 (A) (A) (A) (A) (A) (A) (A) (A) (A) (A) (A) (A)
                 (A) (A) (A) (A) (A) (A) (A) (A) (A) (A) (A) (A)
                 (A) (A) (A) (A) (A) (A) (A) (A) (A) (A) (A) (A)
                 (A) (A) (A) (A) (A) (A) (A) (A) (A) (A) (A) (A)
                 (A) (A) (A) (A) (A) (A) (A) (A) (A) (A) (A) (A)
                 (A) (A) (A) (A) (A) (A) (A) (A) (A) (A) (A)
 The electronic state of the initial guess is 1-A.
 Leave Link  401 at Wed Oct 26 17:41:53 2016, MaxMem= 6749028352 cpu:       7.0
 (Enter /opt/qcapps/g09/l502.exe)
 Closed shell SCF:
 Requested convergence on RMS density matrix=1.00D-07 within 250 cycles.
 Requested convergence on MAX density matrix=1.00D-05.
 Requested convergence on             energy=1.00D-05.
 No special actions if energy rises.
 Using DIIS extrapolation, IDIIS=  1040.
 Integral symmetry usage will be decided dynamically.
       225518 words used for storage of precomputed grid.
 Keep R1 ints in memory in canonical form, NReq=37440618.
 IEnd=      342299 IEndB=      342299 NGot=  6749028352 MDV=  6713607491
 LenX=  6713607491 LenY=  6713590409
 Symmetry not used in FoFDir.
 MinBra= 0 MaxBra= 3 Meth= 1.
 IRaf=       0 NMat=   1 IRICut=       1 DoRegI=T DoRafI=F ISym2E= 0 JSym2E=0.

 Cycle   1  Pass 1  IDiag  1:
 E= -361.191707323181    
 DIIS: error= 5.01D-02 at cycle   1 NSaved=   1.
 NSaved= 1 IEnMin= 1 EnMin= -361.191707323181     IErMin= 1 ErrMin= 5.01D-02
 ErrMax= 5.01D-02 EMaxC= 1.00D-01 BMatC= 7.80D-01 BMatP= 7.80D-01
 IDIUse=3 WtCom= 4.99D-01 WtEn= 5.01D-01
 Coeff-Com:  0.100D+01
 Coeff-En:   0.100D+01
 Coeff:      0.100D+01
 Gap=    -0.127 Goal=   None    Shift=    0.000
 GapD=   -0.127 DampG=0.250 DampE=0.250 DampFc=0.1250 IDamp=-1.
 Damping current iteration by 1.25D-01
 RMSDP=1.97D-02 MaxDP=6.83D-01              OVMax= 7.50D-01

 Cycle   2  Pass 1  IDiag  1:
 E= -361.274490257904     Delta-E=       -0.082782934723 Rises=F Damp=T
 DIIS: error= 2.92D-02 at cycle   2 NSaved=   2.
 NSaved= 2 IEnMin= 2 EnMin= -361.274490257904     IErMin= 2 ErrMin= 2.92D-02
 ErrMax= 2.92D-02 EMaxC= 1.00D-01 BMatC= 1.85D-01 BMatP= 7.80D-01
 IDIUse=3 WtCom= 7.08D-01 WtEn= 2.92D-01
 Coeff-Com: -0.515D+00 0.152D+01
 Coeff-En:   0.319D+00 0.681D+00
 Coeff:     -0.272D+00 0.127D+01
 Gap=     0.059 Goal=   None    Shift=    0.000
 RMSDP=5.48D-03 MaxDP=9.77D-02 DE=-8.28D-02 OVMax= 7.77D-01

 Cycle   3  Pass 1  IDiag  1:
 E= -361.517216114808     Delta-E=       -0.242725856904 Rises=F Damp=F
 DIIS: error= 2.77D-02 at cycle   3 NSaved=   3.
 NSaved= 3 IEnMin= 3 EnMin= -361.517216114808     IErMin= 3 ErrMin= 2.77D-02
 ErrMax= 2.77D-02 EMaxC= 1.00D-01 BMatC= 2.90D-01 BMatP= 1.85D-01
 IDIUse=2 WtCom= 0.00D+00 WtEn= 1.00D+00
 EnCoef did     6 forward-backward iterations
 Coeff-En:   0.201D+00 0.415D-02 0.794D+00
 Coeff:      0.201D+00 0.415D-02 0.794D+00
 Gap=     0.345 Goal=   None    Shift=    0.000
 RMSDP=1.06D-02 MaxDP=3.55D-01 DE=-2.43D-01 OVMax= 4.59D-01

 Cycle   4  Pass 1  IDiag  1:
 E= -358.869922662454     Delta-E=        2.647293452354 Rises=F Damp=F
 DIIS: error= 1.80D-01 at cycle   4 NSaved=   4.
 NSaved= 4 IEnMin= 3 EnMin= -361.517216114808     IErMin= 3 ErrMin= 2.77D-02
 ErrMax= 1.80D-01 EMaxC= 1.00D-01 BMatC= 4.98D+00 BMatP= 1.85D-01
 IDIUse=2 WtCom= 0.00D+00 WtEn= 1.00D+00
 EnCoef did   100 forward-backward iterations
 Coeff-En:   0.229D+00 0.385D-02 0.664D+00 0.104D+00
 Coeff:      0.229D+00 0.385D-02 0.664D+00 0.104D+00
 Gap=     0.150 Goal=   None    Shift=    0.000
 RMSDP=6.27D-03 MaxDP=2.57D-01 DE= 2.65D+00 OVMax= 2.73D-01

 Cycle   5  Pass 1  IDiag  1:
 E= -361.615993144683     Delta-E=       -2.746070482229 Rises=F Damp=F
 DIIS: error= 2.85D-02 at cycle   5 NSaved=   5.
 NSaved= 5 IEnMin= 5 EnMin= -361.615993144683     IErMin= 3 ErrMin= 2.77D-02
 ErrMax= 2.85D-02 EMaxC= 1.00D-01 BMatC= 1.95D-01 BMatP= 1.85D-01
 IDIUse=3 WtCom= 7.15D-01 WtEn= 2.85D-01
 EnCoef did     2 forward-backward iterations
 Coeff-Com:  0.433D-01 0.807D-01 0.292D+00-0.728D-01 0.657D+00
 Coeff-En:   0.489D-01 0.000D+00 0.356D+00 0.000D+00 0.595D+00
 Coeff:      0.449D-01 0.577D-01 0.310D+00-0.521D-01 0.639D+00
 Gap=     0.278 Goal=   None    Shift=    0.000
 RMSDP=2.70D-03 MaxDP=7.35D-02 DE=-2.75D+00 OVMax= 1.20D-01

 Cycle   6  Pass 1  IDiag  1:
 E= -361.752788912435     Delta-E=       -0.136795767752 Rises=F Damp=F
 DIIS: error= 6.20D-03 at cycle   6 NSaved=   6.
 NSaved= 6 IEnMin= 6 EnMin= -361.752788912435     IErMin= 6 ErrMin= 6.20D-03
 ErrMax= 6.20D-03 EMaxC= 1.00D-01 BMatC= 1.54D-02 BMatP= 1.85D-01
 IDIUse=3 WtCom= 9.38D-01 WtEn= 6.20D-02
 Coeff-Com: -0.435D-01 0.706D-01 0.138D+00-0.386D-01 0.378D+00 0.495D+00
 Coeff-En:   0.000D+00 0.000D+00 0.000D+00 0.000D+00 0.921D-01 0.908D+00
 Coeff:     -0.408D-01 0.663D-01 0.129D+00-0.362D-01 0.360D+00 0.521D+00
 Gap=     0.256 Goal=   None    Shift=    0.000
 RMSDP=6.07D-04 MaxDP=1.64D-02 DE=-1.37D-01 OVMax= 2.61D-02

 Cycle   7  Pass 1  IDiag  1:
 E= -361.764576233359     Delta-E=       -0.011787320924 Rises=F Damp=F
 DIIS: error= 1.12D-03 at cycle   7 NSaved=   7.
 NSaved= 7 IEnMin= 7 EnMin= -361.764576233359     IErMin= 7 ErrMin= 1.12D-03
 ErrMax= 1.12D-03 EMaxC= 1.00D-01 BMatC= 4.32D-04 BMatP= 1.54D-02
 IDIUse=3 WtCom= 9.89D-01 WtEn= 1.12D-02
 Coeff-Com: -0.516D-01 0.543D-01 0.182D-01-0.530D-02 0.770D-01 0.323D+00
 Coeff-Com:  0.585D+00
 Coeff-En:   0.000D+00 0.000D+00 0.000D+00 0.000D+00 0.000D+00 0.000D+00
 Coeff-En:   0.100D+01
 Coeff:     -0.510D-01 0.537D-01 0.180D-01-0.524D-02 0.761D-01 0.319D+00
 Coeff:      0.589D+00
 Gap=     0.256 Goal=   None    Shift=    0.000
 RMSDP=1.11D-04 MaxDP=3.84D-03 DE=-1.18D-02 OVMax= 4.83D-03

 Cycle   8  Pass 1  IDiag  1:
 E= -361.764706602207     Delta-E=       -0.000130368848 Rises=F Damp=F
 DIIS: error= 9.86D-04 at cycle   8 NSaved=   8.
 NSaved= 8 IEnMin= 8 EnMin= -361.764706602207     IErMin= 8 ErrMin= 9.86D-04
 ErrMax= 9.86D-04 EMaxC= 1.00D-01 BMatC= 2.64D-04 BMatP= 4.32D-04
 IDIUse=3 WtCom= 9.90D-01 WtEn= 9.86D-03
 Coeff-Com: -0.229D-01 0.201D-01 0.817D-04-0.916D-03 0.291D-01 0.828D-01
 Coeff-Com:  0.210D+00 0.682D+00
 Coeff-En:   0.000D+00 0.000D+00 0.000D+00 0.000D+00 0.000D+00 0.000D+00
 Coeff-En:   0.251D+00 0.749D+00
 Coeff:     -0.227D-01 0.199D-01 0.808D-04-0.907D-03 0.288D-01 0.820D-01
 Coeff:      0.211D+00 0.682D+00
 Gap=     0.255 Goal=   None    Shift=    0.000
 RMSDP=5.43D-05 MaxDP=1.38D-03 DE=-1.30D-04 OVMax= 2.30D-03

 Cycle   9  Pass 1  IDiag  1:
 E= -361.764880420981     Delta-E=       -0.000173818774 Rises=F Damp=F
 DIIS: error= 3.59D-04 at cycle   9 NSaved=   9.
 NSaved= 9 IEnMin= 9 EnMin= -361.764880420981     IErMin= 9 ErrMin= 3.59D-04
 ErrMax= 3.59D-04 EMaxC= 1.00D-01 BMatC= 3.81D-05 BMatP= 2.64D-04
 IDIUse=3 WtCom= 9.96D-01 WtEn= 3.59D-03
 Coeff-Com: -0.853D-02 0.587D-02-0.137D-02-0.332D-03 0.151D-01 0.688D-02
 Coeff-Com:  0.453D-01 0.386D+00 0.551D+00
 Coeff-En:   0.000D+00 0.000D+00 0.000D+00 0.000D+00 0.000D+00 0.000D+00
 Coeff-En:   0.000D+00 0.000D+00 0.100D+01
 Coeff:     -0.850D-02 0.585D-02-0.136D-02-0.330D-03 0.151D-01 0.686D-02
 Coeff:      0.452D-01 0.384D+00 0.553D+00
 Gap=     0.254 Goal=   None    Shift=    0.000
 RMSDP=2.41D-05 MaxDP=6.06D-04 DE=-1.74D-04 OVMax= 9.82D-04

 Cycle  10  Pass 1  IDiag  1:
 E= -361.764907134108     Delta-E=       -0.000026713127 Rises=F Damp=F
 DIIS: error= 1.17D-04 at cycle  10 NSaved=  10.
 NSaved=10 IEnMin=10 EnMin= -361.764907134108     IErMin=10 ErrMin= 1.17D-04
 ErrMax= 1.17D-04 EMaxC= 1.00D-01 BMatC= 4.24D-06 BMatP= 3.81D-05
 IDIUse=3 WtCom= 9.99D-01 WtEn= 1.17D-03
 Coeff-Com:  0.204D-03 0.895D-04-0.557D-04-0.651D-04 0.172D-02-0.196D-01
 Coeff-Com: -0.397D-01-0.347D-01 0.366D+00 0.726D+00
 Coeff-En:   0.000D+00 0.000D+00 0.000D+00 0.000D+00 0.000D+00 0.000D+00
 Coeff-En:   0.000D+00 0.000D+00 0.000D+00 0.100D+01
 Coeff:      0.204D-03 0.893D-04-0.556D-04-0.650D-04 0.172D-02-0.196D-01
 Coeff:     -0.396D-01-0.346D-01 0.365D+00 0.727D+00
 Gap=     0.254 Goal=   None    Shift=    0.000
 RMSDP=1.03D-05 MaxDP=2.51D-04 DE=-2.67D-05 OVMax= 4.64D-04

 Cycle  11  Pass 1  IDiag  1:
 E= -361.764910539948     Delta-E=       -0.000003405840 Rises=F Damp=F
 DIIS: error= 5.98D-06 at cycle  11 NSaved=  11.
 NSaved=11 IEnMin=11 EnMin= -361.764910539948     IErMin=11 ErrMin= 5.98D-06
 ErrMax= 5.98D-06 EMaxC= 1.00D-01 BMatC= 6.07D-09 BMatP= 4.24D-06
 IDIUse=1 WtCom= 1.00D+00 WtEn= 0.00D+00
 Coeff-Com:  0.131D-03 0.386D-04 0.343D-04-0.201D-04 0.292D-03-0.566D-02
 Coeff-Com: -0.108D-01-0.166D-01 0.958D-01 0.202D+00 0.735D+00
 Coeff:      0.131D-03 0.386D-04 0.343D-04-0.201D-04 0.292D-03-0.566D-02
 Coeff:     -0.108D-01-0.166D-01 0.958D-01 0.202D+00 0.735D+00
 Gap=     0.254 Goal=   None    Shift=    0.000
 RMSDP=5.31D-07 MaxDP=9.66D-06 DE=-3.41D-06 OVMax= 2.14D-05

 Cycle  12  Pass 1  IDiag  1:
 E= -361.764910544516     Delta-E=       -0.000000004567 Rises=F Damp=F
 DIIS: error= 2.40D-06 at cycle  12 NSaved=  12.
 NSaved=12 IEnMin=12 EnMin= -361.764910544516     IErMin=12 ErrMin= 2.40D-06
 ErrMax= 2.40D-06 EMaxC= 1.00D-01 BMatC= 1.16D-09 BMatP= 6.07D-09
 IDIUse=1 WtCom= 1.00D+00 WtEn= 0.00D+00
 Coeff-Com:  0.396D-04-0.642D-05 0.227D-04-0.589D-05 0.136D-04-0.670D-03
 Coeff-Com: -0.874D-03-0.367D-02 0.851D-02 0.181D-01 0.310D+00 0.669D+00
 Coeff:      0.396D-04-0.642D-05 0.227D-04-0.589D-05 0.136D-04-0.670D-03
 Coeff:     -0.874D-03-0.367D-02 0.851D-02 0.181D-01 0.310D+00 0.669D+00
 Gap=     0.254 Goal=   None    Shift=    0.000
 RMSDP=3.01D-07 MaxDP=7.29D-06 DE=-4.57D-09 OVMax= 1.22D-05

 Cycle  13  Pass 1  IDiag  1:
 E= -361.764910545098     Delta-E=       -0.000000000583 Rises=F Damp=F
 DIIS: error= 1.06D-06 at cycle  13 NSaved=  13.
 NSaved=13 IEnMin=13 EnMin= -361.764910545098     IErMin=13 ErrMin= 1.06D-06
 ErrMax= 1.06D-06 EMaxC= 1.00D-01 BMatC= 5.68D-10 BMatP= 1.16D-09
 IDIUse=1 WtCom= 1.00D+00 WtEn= 0.00D+00
 Coeff-Com:  0.120D-04-0.141D-04 0.121D-04-0.192D-05-0.258D-04 0.312D-03
 Coeff-Com:  0.873D-03-0.145D-03-0.733D-02-0.160D-01 0.115D+00 0.480D+00
 Coeff-Com:  0.428D+00
 Coeff:      0.120D-04-0.141D-04 0.121D-04-0.192D-05-0.258D-04 0.312D-03
 Coeff:      0.873D-03-0.145D-03-0.733D-02-0.160D-01 0.115D+00 0.480D+00
 Coeff:      0.428D+00
 Gap=     0.254 Goal=   None    Shift=    0.000
 RMSDP=1.37D-07 MaxDP=4.15D-06 DE=-5.83D-10 OVMax= 5.07D-06

 Cycle  14  Pass 1  IDiag  1:
 E= -361.764910545550     Delta-E=       -0.000000000451 Rises=F Damp=F
 DIIS: error= 3.38D-07 at cycle  14 NSaved=  14.
 NSaved=14 IEnMin=14 EnMin= -361.764910545550     IErMin=14 ErrMin= 3.38D-07
 ErrMax= 3.38D-07 EMaxC= 1.00D-01 BMatC= 2.21D-11 BMatP= 5.68D-10
 IDIUse=1 WtCom= 1.00D+00 WtEn= 0.00D+00
 Coeff-Com: -0.160D-05 0.737D-06 0.266D-06 0.352D-06-0.115D-04 0.101D-03
 Coeff-Com:  0.126D-03 0.415D-03-0.174D-02-0.383D-02-0.170D-01-0.530D-02
 Coeff-Com:  0.591D-01 0.968D+00
 Coeff:     -0.160D-05 0.737D-06 0.266D-06 0.352D-06-0.115D-04 0.101D-03
 Coeff:      0.126D-03 0.415D-03-0.174D-02-0.383D-02-0.170D-01-0.530D-02
 Coeff:      0.591D-01 0.968D+00
 Gap=     0.254 Goal=   None    Shift=    0.000
 RMSDP=3.59D-08 MaxDP=8.75D-07 DE=-4.51D-10 OVMax= 1.62D-06

 SCF Done:  E(RB3PW91) =  -361.764910546     A.U. after   14 cycles
             Convg  =    0.3589D-07             -V/T =  2.1094
 KE= 3.260812286987D+02 PE=-1.290521067020D+03 EE= 3.776179004342D+02
 Leave Link  502 at Wed Oct 26 17:42:04 2016, MaxMem= 6749028352 cpu:      78.7
 (Enter /opt/qcapps/g09/l801.exe)
 Range of M.O.s used for correlation:     1   119
 NBasis=   119 NAE=    24 NBE=    24 NFC=     0 NFV=     0
 NROrb=    119 NOA=    24 NOB=    24 NVA=    95 NVB=    95
 Leave Link  801 at Wed Oct 26 17:42:04 2016, MaxMem= 6749028352 cpu:       0.3
 (Enter /opt/qcapps/g09/l1101.exe)
 Using compressed storage, NAtomX=     9.
 Will process  10 centers per pass.
   1 Symmetry operations used in ECPInt.
 ECPInt:  NShTT=     946 NPrTT=    3836 LenC2=     941 LenP2D=    3057.
 LDataN:  DoStor=T MaxTD1= 7 Len=  274
 Leave Link 1101 at Wed Oct 26 17:42:05 2016, MaxMem= 6749028352 cpu:       3.2
 (Enter /opt/qcapps/g09/l1102.exe)
 Symmetrizing basis deriv contribution to polar:
 IMax=3 JMax=2 DiffMx= 0.00D+00
 Leave Link 1102 at Wed Oct 26 17:42:05 2016, MaxMem= 6749028352 cpu:       0.4
 (Enter /opt/qcapps/g09/l1110.exe)
 Forming Gx(P) for the SCF density, NAtomX=     9.
 Integral derivatives from FoFDir/FoFCou, PRISM(SPDF).
 Do as many integral derivatives as possible in FoFDir.
 G2DrvN: MDV=    6749028176.
 G2DrvN: will do    10 centers at a time, making    1 passes doing MaxLOS=3.
 Calling FoFCou, ICntrl=  3107 FMM=F I1Cent=   0 AccDes= 0.00D+00.
 FoFCou: FMM=F IPFlag=           0 FMFlag=      100000 FMFlg1=           0
         NFxFlg=           0 DoJE=F BraDBF=F KetDBF=F FulRan=T
         Omega=  0.000000  0.000000  1.000000  0.000000  0.000000 ICntrl=    3107 IOpCl=  0
         NMat0=    1 NMatS0=    1 NMatT0=    0 NMatD0=    1 NMtDS0=    0 NMtDT0=    0
         I1Cent=           0 NGrid=           0.
 Symmetry not used in FoFCou.
 FoFDir/FoFCou used for L=0 through L=3.
 End of G2Drv Frequency-dependent properties file   721 does not exist.
 End of G2Drv Frequency-dependent properties file   722 does not exist.
 Leave Link 1110 at Wed Oct 26 17:42:17 2016, MaxMem= 6749028352 cpu:      95.3
 (Enter /opt/qcapps/g09/l1002.exe)
 Minotr:  Closed shell wavefunction.
          IDoAtm=111111111
          Direct CPHF calculation.
          Differentiating once with respect to electric field.
                with respect to dipole field.
          Differentiating once with respect to nuclear coordinates.
          Requested convergence is 1.0D-08 RMS, and 1.0D-07 maximum.
          Secondary convergence is 1.0D-12 RMS, and 1.0D-12 maximum.
          NewPWx=T KeepS1=F KeepF1=F KeepIn=T MapXYZ=F SortEE=F KeepMc=T.
          MDV=    6749028258 using IRadAn=       1.
 Generate precomputed XC quadrature information.
          Keep R1 ints in memory in canonical form, NReq=37102209.
 Symmetry not used in FoFDir.
 MinBra= 0 MaxBra= 3 Meth= 1.
 IRaf=       0 NMat=   1 IRICut=       1 DoRegI=T DoRafI=F ISym2E= 0 JSym2E=0.
          Solving linear equations simultaneously, MaxMat=       0.
          There are    30 degrees of freedom in the 1st order CPHF.  IDoFFX=5.
     27 vectors produced by pass  0 Test12= 7.60D-15 3.33D-09 XBig12= 4.15D+01 2.29D+00.
 AX will form    27 AO Fock derivatives at one time.
     27 vectors produced by pass  1 Test12= 7.60D-15 3.33D-09 XBig12= 1.07D+01 5.77D-01.
     27 vectors produced by pass  2 Test12= 7.60D-15 3.33D-09 XBig12= 1.59D-01 8.00D-02.
     27 vectors produced by pass  3 Test12= 7.60D-15 3.33D-09 XBig12= 1.91D-03 9.46D-03.
     27 vectors produced by pass  4 Test12= 7.60D-15 3.33D-09 XBig12= 1.14D-05 5.74D-04.
     27 vectors produced by pass  5 Test12= 7.60D-15 3.33D-09 XBig12= 3.98D-08 4.33D-05.
     14 vectors produced by pass  6 Test12= 7.60D-15 3.33D-09 XBig12= 8.80D-11 1.72D-06.
      3 vectors produced by pass  7 Test12= 7.60D-15 3.33D-09 XBig12= 1.44D-13 5.37D-08.
 Inverted reduced A of dimension   179 with in-core refinement.
 FullF1:  Do perturbations    1 to     3.
 Isotropic polarizability for W=    0.000000       45.89 Bohr**3.
 End of Minotr Frequency-dependent properties file   721 does not exist.
 End of Minotr Frequency-dependent properties file   722 does not exist.
 Leave Link 1002 at Wed Oct 26 17:42:35 2016, MaxMem= 6749028352 cpu:     139.9
 (Enter /opt/qcapps/g09/l601.exe)
 Copying SCF densities to generalized density rwf, IOpCl= 0 IROHF=0.

 **********************************************************************

            Population analysis using the SCF density.

 **********************************************************************

 Orbital symmetries:
       Occupied  (A) (A) (A) (A) (A) (A) (A) (A) (A) (A) (A) (A)
                 (A) (A) (A) (A) (A) (A) (A) (A) (A) (A) (A) (A)
       Virtual   (A) (A) (A) (A) (A) (A) (A) (A) (A) (A) (A) (A)
                 (A) (A) (A) (A) (A) (A) (A) (A) (A) (A) (A) (A)
                 (A) (A) (A) (A) (A) (A) (A) (A) (A) (A) (A) (A)
                 (A) (A) (A) (A) (A) (A) (A) (A) (A) (A) (A) (A)
                 (A) (A) (A) (A) (A) (A) (A) (A) (A) (A) (A) (A)
                 (A) (A) (A) (A) (A) (A) (A) (A) (A) (A) (A) (A)
                 (A) (A) (A) (A) (A) (A) (A) (A) (A) (A) (A) (A)
                 (A) (A) (A) (A) (A) (A) (A) (A) (A) (A) (A)
 The electronic state is 1-A.
 Alpha  occ. eigenvalues --  -19.13905 -19.13721 -19.13638 -19.12642  -2.50084
 Alpha  occ. eigenvalues --   -1.53683  -1.53481  -1.53220  -0.97983  -0.97042
 Alpha  occ. eigenvalues --   -0.96887  -0.96051  -0.49477  -0.49201  -0.48759
 Alpha  occ. eigenvalues --   -0.48085  -0.36444  -0.36286  -0.35038  -0.34474
 Alpha  occ. eigenvalues --   -0.33634  -0.32347  -0.31556  -0.30357
 Alpha virt. eigenvalues --   -0.04999  -0.04187  -0.01860  -0.00878  -0.00109
 Alpha virt. eigenvalues --    0.00045   0.02032   0.02824   0.03073   0.04498
 Alpha virt. eigenvalues --    0.10434   0.11829   0.12795   0.13669   0.14411
 Alpha virt. eigenvalues --    0.17596   0.19182   0.19387   0.20551   0.24036
 Alpha virt. eigenvalues --    0.25319   0.26017   0.28718   0.51463   0.52261
 Alpha virt. eigenvalues --    0.52549   0.57275   0.57536   0.86099   0.87278
 Alpha virt. eigenvalues --    0.88171   0.89224   0.92753   0.95452   0.95862
 Alpha virt. eigenvalues --    0.99309   1.01910   1.02517   1.06431   1.09997
 Alpha virt. eigenvalues --    1.11175   1.13368   1.16069   1.18261   1.21379
 Alpha virt. eigenvalues --    1.22736   1.24447   1.32249   1.37708   1.39319
 Alpha virt. eigenvalues --    1.43554   1.47990   1.49702   1.52799   1.57394
 Alpha virt. eigenvalues --    1.59344   1.59869   1.63904   1.64495   1.70786
 Alpha virt. eigenvalues --    1.72519   1.73580   1.80313   1.88676   1.92806
 Alpha virt. eigenvalues --    1.98628   2.01012   2.11967   2.14380   2.15540
 Alpha virt. eigenvalues --    2.20758   2.37432   2.39336   2.40311   2.43683
 Alpha virt. eigenvalues --    2.44677   2.46889   2.53241   2.57641   2.64493
 Alpha virt. eigenvalues --    2.65224   2.69128   2.69978   2.81460   2.83262
 Alpha virt. eigenvalues --    2.84045   3.03374   3.46493   3.47721   3.50123
 Alpha virt. eigenvalues --    3.52465  24.57723  24.58323  24.59914  35.57116
     Molecular Orbital Coefficients:
                           1         2         3         4         5
                           O         O         O         O         O
     Eigenvalues --   -19.13905 -19.13721 -19.13638 -19.12642  -2.50084
   1 1   Ti 1S         -0.00014  -0.00014  -0.00015  -0.00014   0.39817
   2        2S         -0.00077  -0.00078  -0.00078  -0.00074   0.72674
   3        3S          0.00056   0.00059   0.00058   0.00053   0.50986
   4        4S          0.00595   0.00591   0.00590   0.00584   0.00624
   5        5S         -0.00222  -0.00234  -0.00222  -0.00255  -0.00331
   6        6S          0.00048   0.00051   0.00049   0.00054   0.00091
   7        7PX        -0.00001  -0.00007  -0.00003   0.00010  -0.00004
   8        7PY         0.00006  -0.00008   0.00006  -0.00003   0.00005
   9        7PZ        -0.00009   0.00000   0.00008   0.00001  -0.00001
  10        8PX        -0.00005  -0.00036  -0.00014   0.00056  -0.00027
  11        8PY         0.00032  -0.00044   0.00035  -0.00019   0.00032
  12        8PZ        -0.00047  -0.00002   0.00045   0.00005  -0.00008
  13        9PX         0.00014   0.00104   0.00039  -0.00160  -0.00011
  14        9PY        -0.00094   0.00131  -0.00099   0.00056   0.00025
  15        9PZ         0.00138   0.00007  -0.00131  -0.00016  -0.00006
  16       10PX         0.00026   0.00274   0.00106  -0.00443  -0.00006
  17       10PY        -0.00295   0.00371  -0.00249   0.00167   0.00002
  18       10PZ         0.00359   0.00049  -0.00369  -0.00047  -0.00005
  19       11PX        -0.00012  -0.00064  -0.00022   0.00094   0.00001
  20       11PY         0.00052  -0.00082   0.00070  -0.00035  -0.00001
  21       11PZ        -0.00092   0.00005   0.00076   0.00009  -0.00001
  22       12D 0        0.00015  -0.00013   0.00010  -0.00014   0.00041
  23       12D+1        0.00003   0.00000  -0.00008   0.00004  -0.00002
  24       12D-1       -0.00020   0.00000   0.00022  -0.00001  -0.00015
  25       12D+2       -0.00007  -0.00006  -0.00007   0.00017  -0.00137
  26       12D-2       -0.00002   0.00022  -0.00006  -0.00015   0.00018
  27       13D 0        0.00130  -0.00116   0.00031  -0.00103  -0.00008
  28       13D+1        0.00036   0.00005  -0.00063   0.00029  -0.00002
  29       13D-1       -0.00144  -0.00028   0.00178  -0.00006   0.00004
  30       13D+2       -0.00031  -0.00017  -0.00057   0.00157   0.00054
  31       13D-2       -0.00050   0.00171  -0.00057  -0.00092   0.00012
  32       14D 0        0.00031  -0.00008   0.00025  -0.00028   0.00008
  33       14D+1       -0.00002   0.00024  -0.00031   0.00014   0.00000
  34       14D-1       -0.00039  -0.00005   0.00051  -0.00003   0.00002
  35       14D+2       -0.00042  -0.00026  -0.00010   0.00034  -0.00021
  36       14D-2       -0.00028   0.00055   0.00005  -0.00056  -0.00009
  37       15F 0        0.00012   0.00011   0.00014   0.00003   0.00011
  38       15F+1        0.00013   0.00002   0.00003   0.00003   0.00027
  39       15F-1       -0.00011  -0.00009  -0.00004  -0.00006  -0.00065
  40       15F+2        0.00010   0.00001   0.00004   0.00001  -0.00008
  41       15F-2       -0.00004  -0.00007   0.00006  -0.00003   0.00015
  42       15F+3       -0.00009  -0.00003  -0.00015  -0.00021  -0.00045
  43       15F-3        0.00004   0.00018   0.00010   0.00003   0.00039
  44 2   O  1S          0.00061   0.00069   0.00074   0.99504  -0.00285
  45        2S          0.00020   0.00022   0.00020   0.02885   0.00455
  46        2PX         0.00006   0.00009   0.00007  -0.00065   0.00487
  47        2PY        -0.00007   0.00004  -0.00008  -0.00133  -0.00194
  48        2PZ         0.00008   0.00000  -0.00006   0.00022   0.00052
  49        3S         -0.00043  -0.00054  -0.00042  -0.01428   0.00500
  50        3PX        -0.00032  -0.00043  -0.00039  -0.00278   0.00346
  51        3PY         0.00032  -0.00004   0.00034   0.00109  -0.00113
  52        3PZ        -0.00028  -0.00003   0.00015  -0.00028   0.00033
  53        4D 0       -0.00002   0.00011   0.00001  -0.00029  -0.00085
  54        4D+1        0.00001  -0.00001  -0.00002  -0.00018   0.00028
  55        4D-1        0.00009   0.00002  -0.00009  -0.00003  -0.00011
  56        4D+2       -0.00005  -0.00001  -0.00003   0.00016   0.00107
  57        4D-2        0.00003  -0.00004   0.00004   0.00106  -0.00103
  58 3   H  1S          0.00004  -0.00008   0.00001  -0.00122   0.00020
  59        2S          0.00015   0.00040   0.00011   0.00035   0.00038
  60        3PX         0.00003   0.00004   0.00003  -0.00164   0.00007
  61        3PY        -0.00001   0.00001  -0.00003  -0.00118   0.00006
  62        3PZ         0.00002   0.00000  -0.00001   0.00017  -0.00001
  63 4   O  1S          0.99503  -0.00310  -0.00217  -0.00059  -0.00293
  64        2S          0.02885   0.00004   0.00007   0.00014   0.00467
  65        2PX         0.00091   0.00003   0.00003  -0.00007  -0.00041
  66        2PY         0.00088   0.00010  -0.00002   0.00008   0.00302
  67        2PZ         0.00071  -0.00007  -0.00009  -0.00002  -0.00446
  68        3S         -0.01427  -0.00011  -0.00007  -0.00025   0.00553
  69        3PX         0.00018  -0.00007  -0.00019   0.00017  -0.00035
  70        3PY        -0.00159  -0.00041   0.00012  -0.00034   0.00201
  71        3PZ         0.00249   0.00043   0.00024   0.00000  -0.00320
  72        4D 0        0.00033   0.00001  -0.00007   0.00002   0.00092
  73        4D+1        0.00076  -0.00003   0.00002   0.00000   0.00019
  74        4D-1        0.00064   0.00005  -0.00006   0.00004  -0.00139
  75        4D+2        0.00034   0.00002   0.00005  -0.00007  -0.00048
  76        4D-2        0.00021  -0.00009   0.00003   0.00004  -0.00012
  77 5   H  1S         -0.00125   0.00007  -0.00008  -0.00003   0.00017
  78        2S          0.00046  -0.00049   0.00056   0.00049   0.00024
  79        3PX         0.00112   0.00002   0.00000  -0.00002  -0.00003
  80        3PY         0.00052   0.00001   0.00001   0.00004  -0.00002
  81        3PZ         0.00160   0.00001  -0.00006  -0.00005  -0.00004
  82 6   O  1S          0.00309   0.99501  -0.00706  -0.00066  -0.00296
  83        2S          0.00020   0.02885  -0.00006   0.00018   0.00472
  84        2PX         0.00001   0.00096  -0.00006  -0.00009  -0.00327
  85        2PY        -0.00009  -0.00050  -0.00010   0.00000  -0.00436
  86        2PZ         0.00004  -0.00100  -0.00006  -0.00003  -0.00023
  87        3S         -0.00007  -0.01428  -0.00010  -0.00054   0.00539
  88        3PX        -0.00015   0.00175   0.00033   0.00026  -0.00242
  89        3PY         0.00027   0.00238   0.00048   0.00012  -0.00291
  90        3PZ        -0.00005   0.00010   0.00016   0.00021  -0.00007
  91        4D 0       -0.00005   0.00014   0.00001   0.00009  -0.00087
  92        4D+1       -0.00003  -0.00082   0.00006   0.00002   0.00009
  93        4D-1        0.00005  -0.00019  -0.00008   0.00000   0.00012
  94        4D+2        0.00001   0.00072   0.00002  -0.00004  -0.00042
  95        4D-2       -0.00003  -0.00011  -0.00004   0.00000   0.00147
  96 7   H  1S         -0.00006  -0.00124   0.00006  -0.00004   0.00019
  97        2S          0.00070   0.00049  -0.00044   0.00064   0.00034
  98        3PX        -0.00003   0.00165   0.00000  -0.00007  -0.00005
  99        3PY        -0.00006   0.00018   0.00000  -0.00003   0.00000
 100        3PZ         0.00001  -0.00114  -0.00001   0.00001   0.00005
 101 8   O  1S          0.00221   0.00707   0.99501  -0.00073  -0.00290
 102        2S          0.00022   0.00032   0.02884   0.00014   0.00459
 103        2PX        -0.00002   0.00006   0.00056  -0.00009  -0.00117
 104        2PY         0.00001   0.00006  -0.00109   0.00004   0.00316
 105        2PZ         0.00012   0.00006   0.00087   0.00003   0.00417
 106        3S         -0.00026  -0.00012  -0.01424  -0.00024   0.00552
 107        3PX         0.00016  -0.00024   0.00060   0.00028  -0.00084
 108        3PY        -0.00025  -0.00007  -0.00174  -0.00013   0.00215
 109        3PZ        -0.00059  -0.00018  -0.00233  -0.00016   0.00293
 110        4D 0       -0.00010   0.00002  -0.00071   0.00002   0.00075
 111        4D+1        0.00001   0.00004   0.00016  -0.00004  -0.00052
 112        4D-1        0.00000  -0.00001  -0.00044  -0.00005   0.00136
 113        4D+2        0.00004   0.00002  -0.00048  -0.00006  -0.00045
 114        4D-2        0.00003  -0.00006  -0.00057   0.00006  -0.00040
 115 9   H  1S          0.00007  -0.00006  -0.00120  -0.00009   0.00016
 116        2S         -0.00066   0.00064   0.00043   0.00043   0.00011
 117        3PX         0.00002   0.00001   0.00083  -0.00002  -0.00002
 118        3PY        -0.00004   0.00004  -0.00182   0.00002   0.00006
 119        3PZ        -0.00001   0.00005   0.00028   0.00004  -0.00003
                           6         7         8         9        10
                           O         O         O         O         O
     Eigenvalues --    -1.53683  -1.53481  -1.53220  -0.97983  -0.97042
   1 1   Ti 1S         -0.00008  -0.00006  -0.00014  -0.05122   0.00519
   2        2S         -0.00034  -0.00013  -0.00026  -0.11902   0.01209
   3        3S          0.00051  -0.00012  -0.00048  -0.04886   0.00501
   4        4S         -0.00093   0.00020   0.00119  -0.01054   0.00029
   5        5S          0.00015  -0.00008  -0.00017   0.02030  -0.00204
   6        6S         -0.00006   0.00003   0.00008  -0.00286   0.00028
   7        7PX         0.00852   0.00107   0.10442  -0.00465   0.00429
   8        7PY         0.10337   0.01480  -0.00863   0.00231   0.00852
   9        7PZ        -0.01485   0.10386   0.00014  -0.00238  -0.01635
  10        8PX         0.05810   0.00731   0.71222  -0.03295   0.03043
  11        8PY         0.70462   0.10088  -0.05884   0.01640   0.06049
  12        8PZ        -0.10121   0.70812   0.00097  -0.01684  -0.11607
  13        9PX         0.03216   0.00405   0.39196  -0.01603   0.01454
  14        9PY         0.38827   0.05558  -0.03224   0.00809   0.02872
  15        9PZ        -0.05577   0.38972   0.00051  -0.00825  -0.05498
  16       10PX         0.00110  -0.00005   0.00715  -0.00097   0.00352
  17       10PY         0.00587   0.00029  -0.00046   0.00073   0.00876
  18       10PZ        -0.00047   0.00702  -0.00005  -0.00134  -0.00978
  19       11PX        -0.00016  -0.00002  -0.00106   0.00213  -0.00206
  20       11PY        -0.00106  -0.00022   0.00006  -0.00112  -0.00444
  21       11PZ         0.00026  -0.00128   0.00006   0.00118   0.00825
  22       12D 0       -0.00351  -0.00046   0.00136   0.00503   0.02992
  23       12D+1        0.00068   0.00119  -0.00070  -0.00028   0.01300
  24       12D-1        0.00100  -0.00365   0.00075  -0.00411  -0.04444
  25       12D+2        0.00062  -0.00046  -0.00259  -0.00764  -0.00024
  26       12D-2        0.00175   0.00106   0.00316   0.00562  -0.01717
  27       13D 0       -0.00383   0.00106   0.00119  -0.00016   0.00273
  28       13D+1        0.00007   0.00186  -0.00073  -0.00009   0.00280
  29       13D-1        0.00028  -0.00569   0.00069   0.00028   0.00018
  30       13D+2        0.00136   0.00019  -0.00316   0.00159   0.00024
  31       13D-2        0.00356   0.00115   0.00317   0.00098  -0.00005
  32       14D 0        0.00154   0.00051  -0.00014   0.00004   0.00114
  33       14D+1       -0.00004  -0.00003   0.00015  -0.00009   0.00094
  34       14D-1       -0.00053   0.00143  -0.00021  -0.00012  -0.00197
  35       14D+2       -0.00025  -0.00011   0.00056   0.00002   0.00014
  36       14D-2       -0.00055  -0.00067  -0.00095   0.00038   0.00037
  37       15F 0       -0.00068   0.00058  -0.00027   0.00289   0.00117
  38       15F+1       -0.00180  -0.00062  -0.00243   0.00175   0.00213
  39       15F-1        0.00168  -0.00065  -0.00181  -0.00840  -0.00125
  40       15F+2        0.00002  -0.00344   0.00078   0.00002  -0.00398
  41       15F-2       -0.00033  -0.00197  -0.00004   0.00053  -0.00284
  42       15F+3       -0.00243   0.00028  -0.00074  -0.00544   0.00347
  43       15F-3        0.00085  -0.00010  -0.00125   0.00398  -0.00227
  44 2   O  1S         -0.00509   0.00106   0.01935  -0.06200   0.01437
  45        2S          0.01095  -0.00225  -0.04074   0.13374  -0.03129
  46        2PX         0.00835  -0.00160  -0.02467  -0.01222   0.00413
  47        2PY         0.00127   0.00143   0.01271  -0.02112   0.00591
  48        2PZ         0.00024   0.00487  -0.00338   0.00334  -0.00298
  49        3S          0.00772  -0.00155  -0.02928   0.14020  -0.03230
  50        3PX         0.00321  -0.00038  -0.00597   0.00741  -0.00091
  51        3PY         0.00286   0.00096   0.00503  -0.01175   0.00222
  52        3PZ        -0.00029   0.00397  -0.00133   0.00256   0.00124
  53        4D 0       -0.00036   0.00041   0.00153  -0.00224   0.00075
  54        4D+1       -0.00001   0.00165  -0.00061   0.00020  -0.00020
  55        4D-1        0.00022  -0.00070   0.00038  -0.00044  -0.00030
  56        4D+2        0.00173  -0.00004  -0.00122   0.00182  -0.00022
  57        4D-2        0.00084   0.00040   0.00218  -0.00004  -0.00007
  58 3   H  1S          0.00052  -0.00019  -0.00430   0.04681  -0.01177
  59        2S          0.00026   0.00028   0.00191   0.00520  -0.00026
  60        3PX         0.00002  -0.00006  -0.00148   0.00573  -0.00135
  61        3PY        -0.00019  -0.00001  -0.00028   0.00376  -0.00089
  62        3PZ         0.00004  -0.00004   0.00001  -0.00053  -0.00011
  63 4   O  1S          0.01298  -0.01571  -0.00310  -0.13552  -0.16735
  64        2S         -0.02769   0.03317   0.00636   0.29477   0.36692
  65        2PX         0.00146  -0.00147   0.00500   0.03400   0.04511
  66        2PY        -0.00762   0.01608   0.00242   0.02746   0.03294
  67        2PZ         0.01698  -0.01607  -0.00418   0.03474   0.04900
  68        3S         -0.01899   0.02295   0.00506   0.30750   0.37850
  69        3PX         0.00072   0.00009   0.00393   0.01119   0.01343
  70        3PY        -0.00064   0.00596   0.00088   0.02193   0.02310
  71        3PZ         0.00527  -0.00258  -0.00107  -0.00665  -0.00138
  72        4D 0       -0.00199   0.00009   0.00047   0.00452   0.00518
  73        4D+1       -0.00044   0.00028  -0.00140   0.00366   0.00451
  74        4D-1        0.00100  -0.00225  -0.00046  -0.00272  -0.00330
  75        4D+2       -0.00016  -0.00133  -0.00020  -0.00083  -0.00080
  76        4D-2        0.00013  -0.00017   0.00108   0.00097   0.00094
  77 5   H  1S         -0.00227   0.00362   0.00095   0.10503   0.13358
  78        2S          0.00002  -0.00207  -0.00095   0.01155   0.01531
  79        3PX         0.00019  -0.00052  -0.00018  -0.00808  -0.01016
  80        3PY        -0.00021   0.00009  -0.00003  -0.00325  -0.00400
  81        3PZ         0.00067  -0.00115  -0.00033  -0.01235  -0.01568
  82 6   O  1S         -0.01690  -0.00263  -0.01170  -0.11604   0.10350
  83        2S          0.03579   0.00583   0.02457   0.25236  -0.22663
  84        2PX        -0.01597  -0.00241  -0.00598   0.03446  -0.03406
  85        2PY        -0.01802  -0.00302  -0.01627  -0.00949   0.00651
  86        2PZ        -0.00278   0.00491  -0.00122  -0.03189   0.02761
  87        3S          0.02497   0.00344   0.01763   0.26232  -0.23400
  88        3PX        -0.00487  -0.00125   0.00059   0.00085  -0.00355
  89        3PY        -0.00403  -0.00066  -0.00588  -0.01944   0.01403
  90        3PZ        -0.00156   0.00401  -0.00088  -0.01202   0.01104
  91        4D 0       -0.00116  -0.00037  -0.00088  -0.00219   0.00206
  92        4D+1        0.00032  -0.00101  -0.00001  -0.00262   0.00273
  93        4D-1        0.00049  -0.00147   0.00031   0.00025  -0.00043
  94        4D+2        0.00023   0.00000  -0.00201   0.00069  -0.00086
  95        4D-2        0.00231   0.00036   0.00091   0.00422  -0.00350
  96 7   H  1S          0.00342   0.00016   0.00286   0.08967  -0.08134
  97        2S         -0.00111   0.00107  -0.00135   0.00910  -0.01102
  98        3PX        -0.00090   0.00002  -0.00088  -0.01070   0.00965
  99        3PY        -0.00059  -0.00010  -0.00041  -0.00182   0.00170
 100        3PZ         0.00033  -0.00008   0.00042   0.00709  -0.00637
 101 8   O  1S          0.00991   0.01690  -0.00582  -0.10751   0.09083
 102        2S         -0.02069  -0.03602   0.01223   0.23338  -0.19897
 103        2PX         0.00390   0.00580   0.00329   0.01726  -0.01579
 104        2PY        -0.00423  -0.01517   0.00508  -0.03611   0.03470
 105        2PZ        -0.01401  -0.01782   0.00773   0.01992  -0.01660
 106        3S         -0.01532  -0.02428   0.00874   0.24396  -0.20534
 107        3PX         0.00115   0.00191   0.00326   0.00292  -0.00283
 108        3PY         0.00116  -0.00457   0.00122  -0.00278   0.00330
 109        3PZ        -0.00527  -0.00394   0.00275   0.02249  -0.01434
 110        4D 0       -0.00196  -0.00029   0.00092   0.00068  -0.00007
 111        4D+1        0.00088   0.00082   0.00110  -0.00088   0.00089
 112        4D-1       -0.00059  -0.00205   0.00098   0.00239  -0.00230
 113        4D+2       -0.00042   0.00096  -0.00062  -0.00299   0.00219
 114        4D-2        0.00023   0.00086   0.00076  -0.00296   0.00228
 115 9   H  1S         -0.00268  -0.00344   0.00160   0.08283  -0.07277
 116        2S          0.00165   0.00064  -0.00089   0.00876  -0.00597
 117        3PX         0.00038   0.00038  -0.00023  -0.00489   0.00426
 118        3PY        -0.00088  -0.00094   0.00053   0.01093  -0.00947
 119        3PZ        -0.00022  -0.00045   0.00013  -0.00104   0.00084
                          11        12        13        14        15
                           O         O         O         O         O
     Eigenvalues --    -0.96887  -0.96051  -0.49477  -0.49201  -0.48759
   1 1   Ti 1S         -0.00150  -0.01190   0.05411   0.04182  -0.03015
   2        2S         -0.00352  -0.02780   0.13526   0.10482  -0.07544
   3        3S         -0.00142  -0.01119   0.05787   0.04382  -0.03216
   4        4S          0.00048  -0.00162  -0.11273  -0.08633   0.06433
   5        5S          0.00010   0.00505   0.02507   0.02039  -0.01311
   6        6S          0.00005  -0.00071  -0.00395  -0.00336   0.00200
   7        7PX         0.00443   0.01817   0.00165   0.00869   0.00381
   8        7PY         0.01646  -0.00534  -0.00306   0.00866   0.01530
   9        7PZ         0.00918   0.00098   0.01327  -0.00920   0.00910
  10        8PX         0.03148   0.12909   0.01232   0.06420   0.02810
  11        8PY         0.11687  -0.03795  -0.02235   0.06364   0.11288
  12        8PZ         0.06515   0.00697   0.09777  -0.06794   0.06681
  13        9PX         0.01495   0.06091   0.00419   0.02031   0.00880
  14        9PY         0.05534  -0.01757  -0.00796   0.02060   0.03661
  15        9PZ         0.03078   0.00332   0.03162  -0.02186   0.02123
  16       10PX         0.00278   0.01239   0.00347  -0.01386  -0.00704
  17       10PY         0.01061  -0.00406   0.01556  -0.02129  -0.02073
  18       10PZ         0.00823   0.00133  -0.02284   0.00985  -0.02777
  19       11PX        -0.00211  -0.00911   0.00403   0.00519   0.00003
  20       11PY        -0.00843   0.00274   0.00034  -0.00122   0.00596
  21       11PZ        -0.00463  -0.00053   0.00464  -0.00402  -0.00183
  22       12D 0        0.02662  -0.02495  -0.00950   0.01338   0.14798
  23       12D+1       -0.01076   0.00836  -0.01243   0.00616  -0.05038
  24       12D-1        0.03089  -0.00432   0.14213  -0.14696   0.03639
  25       12D+2       -0.00572   0.03923   0.08086   0.06229   0.00454
  26       12D-2       -0.03846  -0.02792  -0.04466  -0.10362  -0.10437
  27       13D 0       -0.00111  -0.00179   0.00195  -0.00441   0.04141
  28       13D+1        0.00081   0.00001   0.00028  -0.00403  -0.01711
  29       13D-1        0.00152  -0.00011   0.03772  -0.04051   0.00475
  30       13D+2       -0.00246   0.00233   0.02768   0.01818   0.00624
  31       13D-2       -0.00246   0.00258  -0.01140  -0.03059  -0.02160
  32       14D 0        0.00139  -0.00058   0.00266  -0.00505   0.00326
  33       14D+1        0.00026   0.00019   0.00227  -0.00532  -0.00589
  34       14D-1        0.00049  -0.00033   0.00306  -0.00414   0.00028
  35       14D+2       -0.00088   0.00123   0.00763   0.00196   0.00497
  36       14D-2       -0.00173  -0.00028   0.00198  -0.00398   0.00214
  37       15F 0        0.00076   0.00012   0.00173   0.00581  -0.00143
  38       15F+1        0.00373   0.00451   0.00444   0.00149   0.00733
  39       15F-1       -0.00101   0.00145   0.01380   0.01097  -0.01264
  40       15F+2        0.00335  -0.00150   0.01088  -0.00659   0.00027
  41       15F-2        0.00343   0.00029  -0.00086  -0.00624   0.00073
  42       15F+3        0.00204  -0.00308   0.00586   0.00955   0.00741
[...]
   XXXX                                                                                                  XXX      XXXX   XX       X  
   XXXX                                                                                                  XXX      XXXX   XX       X  
   XXXX                                                                                                  XXX      XXXX   XX       X  
   XXXX                                                                                                  XXX      XXXX   XX       X  
    XXX                                                                                                  XXX      XXXX   X        X  
    XXX                                                                                                  XXX      XXXX   X        X  
     XX                                                                                                  XXX      XXX    X           
     XX                                                                                                  XXX       XX    X           
     XX                                                                                                  XXX       XX    X           
     XX                                                                                                  XXX       X     X           
     XX                                                                                                  XXX       X                 
     X                                                                                                   XX        X                 
     X                                                                                                   XX                          
                                                                                                          X                          
                                                                                                          X                          
 
 ***** Axes restored to original set *****
 -------------------------------------------------------------------
 Center     Atomic                   Forces (Hartrees/Bohr)
 Number     Number              X              Y              Z
 -------------------------------------------------------------------
      1       22          -0.000016149    0.000003496   -0.000009750
      2        8          -0.000002775   -0.000005043   -0.000004622
      3        1           0.000001329   -0.000000455    0.000000927
      4        8           0.000015953    0.000004704    0.000002570
      5        1          -0.000004423    0.000000109   -0.000000955
      6        8          -0.000003600    0.000010013   -0.000007518
      7        1           0.000005155   -0.000006295    0.000002723
      8        8           0.000005980   -0.000005594    0.000015469
      9        1          -0.000001470   -0.000000935    0.000001155
 -------------------------------------------------------------------
 Cartesian Forces:  Max     0.000016149 RMS     0.000006894
 Z-matrix is all fixed cartesians, so copy forces.
 Force constants in Cartesian coordinates: 
                1             2             3             4             5 
      1  0.425861D+00
      2 -0.306028D-02  0.463090D+00
      3  0.169439D-01  0.148269D-01  0.429772D+00
      4 -0.722441D-01 -0.559505D-01 -0.556462D-01  0.110867D+00
      5 -0.717502D-01 -0.141808D+00 -0.902306D-01 -0.680014D-01  0.616687D+00
      6 -0.625534D-01 -0.803853D-01 -0.916942D-01  0.324377D-01  0.191848D+00
      7 -0.311609D-02 -0.155355D-01 -0.593198D-02 -0.437869D-01  0.149552D+00
      8  0.134870D-02 -0.115740D-01 -0.291716D-02  0.136533D+00 -0.482114D+00
      9  0.117964D-02 -0.144639D-01 -0.610445D-02  0.269655D-01 -0.943498D-01
     10 -0.222407D+00 -0.155586D-01  0.559203D-01 -0.832493D-02 -0.161801D-01
     11 -0.310893D-01 -0.359840D-01  0.691179D-02 -0.667579D-02  0.223949D-02
     12  0.622548D-01  0.329421D-02 -0.553504D-01 -0.236651D-02  0.776602D-02
     13 -0.183431D-01 -0.107639D-01  0.105489D-01  0.828070D-03  0.771755D-03
     14  0.548135D-02 -0.753089D-03  0.663463D-03  0.306800D-04  0.179048D-02
     15  0.321090D-02  0.391532D-02  0.284115D-02 -0.125530D-02 -0.933225D-03
     16 -0.806274D-01  0.876688D-01 -0.119804D-01  0.121877D-01  0.425263D-02
     17  0.878075D-01 -0.206952D+00  0.190475D-01 -0.966383D-02 -0.106887D-01
     18 -0.454864D-02  0.367650D-02 -0.334677D-01  0.575634D-02 -0.140516D-02
     19  0.490556D-03  0.106481D-01  0.516657D-02 -0.159343D-02 -0.220066D-02
     20  0.918979D-02 -0.155164D-01 -0.856103D-02  0.870918D-03  0.656988D-03
     21 -0.342793D-02  0.808570D-02  0.958800D-04  0.559661D-03  0.259474D-03
     22 -0.284621D-01  0.511660D-02 -0.208245D-01  0.104193D-02  0.203955D-02
     23 -0.497066D-03 -0.530197D-01  0.517598D-01  0.201365D-02  0.140205D-01
     24 -0.261873D-02  0.565673D-01 -0.227271D+00 -0.710775D-02 -0.139888D-01
     25 -0.115112D-02 -0.256470D-02  0.580345D-02  0.102469D-02  0.151623D-02
     26  0.256952D-02  0.251690D-02  0.849930D-02  0.843125D-03 -0.783991D-03
     27 -0.104405D-01  0.448333D-02 -0.188210D-01  0.656539D-03  0.103428D-02
                6             7             8             9            10 
      6  0.111064D+00
      7  0.320874D-01  0.467858D-01
      8 -0.102333D+00 -0.139297D+00  0.490928D+00
      9 -0.212367D-01 -0.255441D-01  0.104395D+00  0.252686D-01
     10 -0.857737D-02 -0.466239D-03  0.277858D-02 -0.120778D-02  0.364469D+00
     11  0.282184D-02  0.186493D-02  0.107552D-02  0.773362D-03  0.225493D+00
     12  0.991983D-02  0.115374D-02 -0.298191D-03  0.542906D-03 -0.180801D+00
     13  0.161544D-03 -0.709627D-04 -0.203714D-03 -0.937208D-04 -0.127927D+00
     14  0.409475D-03  0.183187D-03 -0.502450D-04  0.243222D-03 -0.209532D+00
     15 -0.127818D-02  0.424689D-04  0.407565D-03 -0.137310D-03  0.114795D+00
     16  0.937856D-02  0.102449D-03 -0.161537D-02 -0.120790D-02 -0.703824D-02
     17 -0.117076D-01  0.147095D-02  0.190166D-02  0.204812D-02  0.195792D-01
     18  0.325281D-02 -0.107753D-03 -0.775421D-03  0.421222D-03  0.873770D-03
     19 -0.110526D-02  0.411101D-03  0.156262D-03  0.401814D-03 -0.314026D-03
     20  0.103847D-02 -0.138789D-04 -0.169776D-03 -0.125497D-03 -0.174547D-02
     21  0.107921D-02  0.686870D-04 -0.200855D-03  0.704398D-04 -0.180777D-02
     22 -0.229547D-02 -0.143069D-03  0.430584D-03 -0.427131D-03  0.478360D-02
     23  0.817462D-03  0.232578D-02 -0.902817D-04  0.114641D-02 -0.375728D-02
     24 -0.122601D-01 -0.165771D-02  0.192980D-02  0.140755D-02  0.216591D-01
     25  0.466234D-03  0.283932D-03 -0.130895D-03 -0.663379D-04 -0.277469D-02
     26 -0.250898D-02 -0.550388D-03  0.924607D-04  0.333533D-03 -0.107647D-02
     27  0.115393D-02 -0.110774D-03 -0.207220D-03 -0.232259D-03 -0.854043D-03
               11            12            13            14            15 
     11  0.342448D+00
     12 -0.186326D+00  0.139914D+00
     13 -0.194510D+00  0.108807D+00  0.141623D+00
     14 -0.321027D+00  0.179936D+00  0.203954D+00  0.321864D+00
     15  0.176016D+00 -0.101297D+00 -0.116112D+00 -0.179018D+00  0.102126D+00
     16  0.842892D-02  0.164201D-02  0.312576D-02 -0.171575D-03 -0.166091D-02
     17  0.984463D-02 -0.645087D-02  0.385043D-03 -0.285008D-02  0.311486D-03
     18 -0.263800D-02  0.496710D-02 -0.177886D-02 -0.192756D-03 -0.179018D-02
     19 -0.730236D-03 -0.784394D-03 -0.140110D-03  0.385681D-03  0.238956D-03
     20 -0.980154D-04  0.387998D-03  0.190307D-03  0.389864D-03 -0.211371D-03
     21 -0.539380D-03  0.727959D-03  0.272923D-04  0.272372D-04 -0.598346D-04
     22 -0.266544D-02  0.103033D-01  0.582389D-03 -0.577995D-03  0.427828D-03
     23  0.341635D-02  0.326877D-02  0.150987D-03  0.581987D-03 -0.845551D-03
     24  0.431341D-02 -0.261269D-02 -0.199841D-02 -0.213416D-02 -0.574232D-03
     25 -0.116217D-03 -0.209075D-03  0.322343D-03  0.246715D-03  0.312852D-03
     26 -0.191471D-02 -0.157765D-02  0.246501D-04  0.534746D-04  0.358134D-03
     27 -0.133299D-02  0.318833D-02  0.437685D-03  0.661260D-04  0.170002D-03
               16            17            18            19            20 
     16  0.119865D+00
     17 -0.202743D+00  0.426624D+00
     18 -0.111231D+00  0.229466D+00  0.302977D+00
     19 -0.522559D-01  0.102593D+00  0.115696D+00  0.547246D-01
     20  0.102623D+00 -0.215953D+00 -0.236903D+00 -0.109011D+00  0.228068D+00
     21  0.122894D+00 -0.252133D+00 -0.281757D+00 -0.118755D+00  0.244997D+00
     22  0.369861D-02  0.226773D-02 -0.445519D-02 -0.137957D-02 -0.225024D-02
     23  0.217973D-02 -0.797598D-03  0.927179D-02 -0.214415D-02  0.266654D-02
     24 -0.850830D-02  0.207769D-01  0.505829D-02 -0.593749D-03 -0.842760D-03
     25  0.941824D-03 -0.169634D-02 -0.204155D-03  0.568551D-04  0.146460D-03
     26 -0.623318D-03 -0.112875D-02 -0.499795D-03  0.303262D-03 -0.442443D-04
     27  0.674096D-03 -0.135801D-02  0.338424D-03 -0.264848D-03  0.219962D-03
               21            22            23            24            25 
     21  0.282461D+00
     22  0.454127D-03  0.364644D+00
     23 -0.989534D-03 -0.231649D-01  0.358738D-01
     24 -0.292522D-02  0.270297D+00 -0.794444D-01  0.439923D+00
     25 -0.133805D-04 -0.344766D+00  0.228933D-01 -0.269472D+00  0.346062D+00
     26  0.493519D-03  0.188041D-01 -0.265154D-02  0.128227D-01 -0.202945D-01
     27  0.307593D-03 -0.253480D+00  0.150153D-01 -0.200745D+00  0.263382D+00
               26            27 
     26  0.386040D-02
     27 -0.179208D-01  0.214640D+00
 Leave Link  716 at Wed Oct 26 17:43:07 2016, MaxMem= 6749028352 cpu:       1.4
 (Enter /opt/qcapps/g09/l103.exe)

 GradGradGradGradGradGradGradGradGradGradGradGradGradGradGradGradGradGrad
 Berny optimization.
 Search for a local minimum.
 Step number   1 out of a maximum of    2
 All quantities printed in internal units (Hartrees-Bohrs-Radians)
 Second derivative matrix not updated -- analytic derivatives used.
 ITU=  0
     Eigenvalues ---    0.00028   0.00185   0.00223   0.00282   0.00576
     Eigenvalues ---    0.00590   0.00804   0.01124   0.02530   0.03022
     Eigenvalues ---    0.04960   0.05362   0.06532   0.22433   0.51537
     Eigenvalues ---    0.52969   0.55755   1.09153   1.10113   1.15035
     Eigenvalues ---    1.16992
 Angle between quadratic step and forces=  75.84 degrees.
 Linear search not attempted -- first point.
 TrRot= -0.000009  0.000023 -0.000055 -0.000024  0.000069 -0.000024
 MatCor failed.
 Variable       Old X    -DE/DX   Delta X   Delta X   Delta X     New X
                                 (Linear)    (Quad)   (Total)
    X1        0.08032  -0.00002   0.00000  -0.00016  -0.00017   0.08015
    Y1        0.18416   0.00000   0.00000  -0.00005  -0.00003   0.18412
    Z1       -0.11666  -0.00001   0.00000  -0.00002  -0.00008  -0.11674
    X2        1.73140   0.00000   0.00000   0.00026   0.00049   1.73190
    Y2        2.46227  -0.00001   0.00000  -0.00008  -0.00014   2.46214
    Z2        1.80838   0.00000   0.00000  -0.00037  -0.00054   1.80783
    X3        1.21462   0.00000   0.00000  -0.00060  -0.00026   1.21437
    Y3        4.17103   0.00000   0.00000  -0.00062  -0.00066   4.17037
    Z3        2.15193   0.00000   0.00000   0.00106   0.00092   2.15285
    X4       -3.18420   0.00002   0.00000   0.00003   0.00008  -3.18413
    Y4       -0.01639   0.00000   0.00000   0.00048   0.00066  -0.01573
    Z4        0.81784   0.00000   0.00000   0.00049   0.00065   0.81849
    X5       -4.05541   0.00000   0.00000  -0.00091  -0.00087  -4.05628
    Y5       -1.41049   0.00000   0.00000   0.00041   0.00063  -1.40986
    Z5        1.59204   0.00000   0.00000  -0.00071  -0.00048   1.59156
    X6        1.59151   0.00000   0.00000  -0.00014  -0.00027   1.59125
    Y6       -2.83634   0.00001   0.00000  -0.00001  -0.00006  -2.83640
    Z6        0.25077  -0.00001   0.00000  -0.00028  -0.00045   0.25032
    X7        2.13974   0.00001   0.00000   0.00181   0.00153   2.14127
    Y7       -3.97207  -0.00001   0.00000   0.00032   0.00024  -3.97183
    Z7       -1.05841   0.00000   0.00000   0.00027   0.00006  -1.05834
    X8        0.09819   0.00001   0.00000  -0.00005  -0.00023   0.09795
    Y8        1.14506  -0.00001   0.00000  -0.00017  -0.00015   1.14491
    Z8       -3.38416   0.00002   0.00000  -0.00002  -0.00008  -3.38424
    X9       -1.35141   0.00000   0.00000  -0.00004  -0.00030  -1.35172
    Y9        1.22380   0.00000   0.00000  -0.00058  -0.00049   1.22331
    Z9       -4.47870   0.00000   0.00000  -0.00005  -0.00001  -4.47872
         Item               Value     Threshold  Converged?
 Maximum Force            0.000016     0.000450     YES
 RMS     Force            0.000007     0.000300     YES
 Maximum Displacement     0.001534     0.001800     YES
 RMS     Displacement     0.000520     0.001200     YES
 Predicted change in Energy=-1.349625D-08
 Optimization completed.
    -- Stationary point found.
 GradGradGradGradGradGradGradGradGradGradGradGradGradGradGradGradGradGrad

 Leave Link  103 at Wed Oct 26 17:43:07 2016, MaxMem= 6749028352 cpu:       1.3
 (Enter /opt/qcapps/g09/l9999.exe)

 Test job not archived.
 1\1\GINC-TITAN12\Freq\RB3PW91\GenECP\H4O4Ti1\OHNISHI\26-Oct-2016\0\\#P
  B3PW91/GenECP SCFCon=7 SCFCyc=250 GFInput GFOldPrint Pseudo=Read Freq
  Integral=(Grid=UltraFine) Pop=Regular IOp(1/33=0,2/11=1,3/27=8,6/7=3)
 \\Frequency\\0,1\Ti,0.042503,0.097451,-0.061733\O,0.916219,1.302979,0.
 956952\H,0.642751,2.207214,1.138752\O,-1.685008,-0.008674,0.432782\H,-
 2.146028,-0.746401,0.842473\O,0.842193,-1.500925,0.132702\H,1.132301,-
 2.101929,-0.560085\O,0.051959,0.605939,-1.79082\H,-0.715137,0.647607,-
 2.370028\\Version=AM64L-G09RevC.01\State=1-A\HF=-361.7649105\RMSD=3.58
 9e-08\RMSF=6.894e-06\ZeroPoint=0.0515903\Thermal=0.0607352\Dipole=-0.8
 011729,-0.3041712,-0.4527656\DipoleDeriv=2.3261866,0.1002747,-0.044417
 4,-0.0656856,2.3397803,0.0432773,0.0779424,0.0371742,2.338027,-0.75980
 16,-0.4528107,-0.2522526,-0.4353718,-1.0668896,-0.4407637,-0.2305175,-
 0.4656713,-0.9716612,0.2931739,0.0666732,-0.0268213,0.0995199,0.341922
 8,0.0510724,-0.0155874,0.0339208,0.37531,-1.5723004,-0.1343161,0.32223
 1,-0.1023457,-0.506629,0.0171066,0.2878671,0.0044063,-0.6738322,0.4055
 554,0.008452,-0.0229003,0.0578385,0.2706198,0.0096519,-0.0387772,0.023
 741,0.3428401,-0.8080631,0.4447659,-0.00315,0.449123,-1.4640594,0.0676
 874,-0.0151915,0.0892959,-0.469493,0.3625766,-0.0417723,0.0014502,-0.0
 322185,0.4019532,-0.0261251,-0.0216991,0.0228904,0.2452797,-0.4939076,
 0.0398449,-0.0170241,0.0458949,-0.6534823,0.3015625,-0.0269246,0.27695
 75,-1.5985581,0.2465802,-0.0311115,0.0428846,-0.0167547,0.3367841,-0.0
 234693,-0.0171122,-0.0227148,0.4120875\Polar=44.6471537,0.1274793,47.6
 968048,0.3899797,1.5696125,45.3381826\PG=C01 [X(H4O4Ti1)]\NImag=0\\0.4
 2586060,-0.00306028,0.46309044,0.01694391,0.01482687,0.42977189,-0.072
 24406,-0.05595051,-0.05564623,0.11086696,-0.07175023,-0.14180788,-0.09
 023055,-0.06800140,0.61668697,-0.06255339,-0.08038532,-0.09169425,0.03
 243772,0.19184776,0.11106350,-0.00311609,-0.01553546,-0.00593198,-0.04
 378693,0.14955219,0.03208744,0.04678581,0.00134870,-0.01157402,-0.0029
 1716,0.13653316,-0.48211379,-0.10233314,-0.13929731,0.49092848,0.00117
 964,-0.01446392,-0.00610445,0.02696554,-0.09434984,-0.02123671,-0.0255
 4412,0.10439461,0.02526861,-0.22240728,-0.01555861,0.05592027,-0.00832
 493,-0.01618007,-0.00857737,-0.00046624,0.00277858,-0.00120778,0.36446
 885,-0.03108929,-0.03598405,0.00691179,-0.00667579,0.00223949,0.002821
 84,0.00186493,0.00107552,0.00077336,0.22549264,0.34244752,0.06225479,0
 .00329421,-0.05535038,-0.00236651,0.00776602,0.00991983,0.00115374,-0.
 00029819,0.00054291,-0.18080107,-0.18632600,0.13991386,-0.01834309,-0.
 01076394,0.01054894,0.00082807,0.00077175,0.00016154,-0.00007096,-0.00
 020371,-0.00009372,-0.12792703,-0.19450951,0.10880720,0.14162264,0.005
 48135,-0.00075309,0.00066346,0.00003068,0.00179048,0.00040947,0.000183
 19,-0.00005024,0.00024322,-0.20953247,-0.32102673,0.17993571,0.2039544
 3,0.32186435,0.00321090,0.00391532,0.00284115,-0.00125530,-0.00093322,
 -0.00127818,0.00004247,0.00040756,-0.00013731,0.11479488,0.17601596,-0
 .10129692,-0.11611167,-0.17901832,0.10212550,-0.08062739,0.08766878,-0
 .01198044,0.01218771,0.00425263,0.00937856,0.00010245,-0.00161537,-0.0
 0120790,-0.00703824,0.00842892,0.00164201,0.00312576,-0.00017157,-0.00
 166091,0.11986522,0.08780749,-0.20695213,0.01904751,-0.00966383,-0.010
 68875,-0.01170757,0.00147095,0.00190166,0.00204812,0.01957916,0.009844
 63,-0.00645087,0.00038504,-0.00285008,0.00031149,-0.20274305,0.4266240
 6,-0.00454864,0.00367650,-0.03346765,0.00575634,-0.00140516,0.00325281
 ,-0.00010775,-0.00077542,0.00042122,0.00087377,-0.00263800,0.00496710,
 -0.00177886,-0.00019276,-0.00179018,-0.11123125,0.22946570,0.30297715,
 0.00049056,0.01064813,0.00516657,-0.00159343,-0.00220066,-0.00110526,0
 .00041110,0.00015626,0.00040181,-0.00031403,-0.00073024,-0.00078439,-0
 .00014011,0.00038568,0.00023896,-0.05225593,0.10259285,0.11569575,0.05
 472455,0.00918979,-0.01551644,-0.00856103,0.00087092,0.00065699,0.0010
 3847,-0.00001388,-0.00016978,-0.00012550,-0.00174547,-0.00009802,0.000
 38800,0.00019031,0.00038986,-0.00021137,0.10262325,-0.21595304,-0.2369
 0286,-0.10901113,0.22806812,-0.00342793,0.00808570,0.00009588,0.000559
 66,0.00025947,0.00107921,0.00006869,-0.00020085,0.00007044,-0.00180777
 ,-0.00053938,0.00072796,0.00002729,0.00002724,-0.00005983,0.12289415,-
 0.25213325,-0.28175716,-0.11875484,0.24499708,0.28246114,-0.02846212,0
 .00511660,-0.02082448,0.00104193,0.00203955,-0.00229547,-0.00014307,0.
 00043058,-0.00042713,0.00478360,-0.00266544,0.01030330,0.00058239,-0.0
 0057800,0.00042783,0.00369861,0.00226773,-0.00445519,-0.00137957,-0.00
 225024,0.00045413,0.36464406,-0.00049707,-0.05301974,0.05175980,0.0020
 1365,0.01402049,0.00081746,0.00232578,-0.00009028,0.00114641,-0.003757
 28,0.00341635,0.00326877,0.00015099,0.00058199,-0.00084555,0.00217973,
 -0.00079760,0.00927179,-0.00214415,0.00266654,-0.00098953,-0.02316493,
 0.03587379,-0.00261873,0.05656730,-0.22727122,-0.00710775,-0.01398876,
 -0.01226015,-0.00165771,0.00192980,0.00140755,0.02165912,0.00431341,-0
 .00261269,-0.00199841,-0.00213416,-0.00057423,-0.00850830,0.02077688,0
 .00505829,-0.00059375,-0.00084276,-0.00292522,0.27029732,-0.07944443,0
 .43992275,-0.00115112,-0.00256470,0.00580345,0.00102469,0.00151623,0.0
 0046623,0.00028393,-0.00013089,-0.00006634,-0.00277469,-0.00011622,-0.
 00020908,0.00032234,0.00024671,0.00031285,0.00094182,-0.00169634,-0.00
 020415,0.00005686,0.00014646,-0.00001338,-0.34476583,0.02289327,-0.269
 47179,0.34606200,0.00256952,0.00251690,0.00849930,0.00084313,-0.000783
 99,-0.00250898,-0.00055039,0.00009246,0.00033353,-0.00107647,-0.001914
 71,-0.00157765,0.00002465,0.00005347,0.00035813,-0.00062332,-0.0011287
 5,-0.00049980,0.00030326,-0.00004424,0.00049352,0.01880414,-0.00265154
 ,0.01282270,-0.02029452,0.00386040,-0.01044055,0.00448333,-0.01882097,
 0.00065654,0.00103428,0.00115393,-0.00011077,-0.00020722,-0.00023226,-
 0.00085404,-0.00133299,0.00318833,0.00043768,0.00006613,0.00017000,0.0
 0067410,-0.00135801,0.00033842,-0.00026485,0.00021996,0.00030759,-0.25
 348031,0.01501527,-0.20074507,0.26338220,-0.01792076,0.21464002\\0.000
 01615,-0.00000350,0.00000975,0.00000277,0.00000504,0.00000462,-0.00000
 133,0.00000046,-0.00000093,-0.00001595,-0.00000470,-0.00000257,0.00000
 442,-0.00000011,0.00000095,0.00000360,-0.00001001,0.00000752,-0.000005
 15,0.00000629,-0.00000272,-0.00000598,0.00000559,-0.00001547,0.0000014
 7,0.00000094,-0.00000115\\\@


 TELEVISION IS CALLED A MEDIUM BECAUSE IT ISN'T
 RARE, AND IT ISN'T WELL DONE.
 Job cpu time:  0 days  0 hours  1 minutes 15.3 seconds.
 File lengths (MBytes):  RWF=     22 Int=      0 D2E=      0 Chk=      2 Scr=      1
 Normal termination of Gaussian 09 at Wed Oct 26 17:43:08 2016.
real 76.42
user 73.21
sys 2.15
