 Running on titan10
 Entering Gaussian System, Link 0=g09
 Initial command:
 /opt/qcapps/g09/l1.exe /work/ohnishi/1477468932/Gau-5230.inp -scrdir=/work/ohnishi/1477468932/
 Entering Link 1 = /opt/qcapps/g09/l1.exe PID=      5231.
  
 Copyright (c) 1988,1990,1992,1993,1995,1998,2003,2009,2011,
            Gaussian, Inc.  All Rights Reserved.
  
 This is part of the Gaussian(R) 09 program.  It is based on
 the Gaussian(R) 03 system (copyright 2003, Gaussian, Inc.),
 the Gaussian(R) 98 system (copyright 1998, Gaussian, Inc.),
 the Gaussian(R) 94 system (copyright 1995, Gaussian, Inc.),
 the Gaussian 92(TM) system (copyright 1992, Gaussian, Inc.),
 the Gaussian 90(TM) system (copyright 1990, Gaussian, Inc.),
 the Gaussian 88(TM) system (copyright 1988, Gaussian, Inc.),
 the Gaussian 86(TM) system (copyright 1986, Carnegie Mellon
 University), and the Gaussian 82(TM) system (copyright 1983,
 Carnegie Mellon University). Gaussian is a federally registered
 trademark of Gaussian, Inc.
  
 This software contains proprietary and confidential information,
 including trade secrets, belonging to Gaussian, Inc.
  
 This software is provided under written license and may be
 used, copied, transmitted, or stored only in accord with that
 written license.
  
 The following legend is applicable only to US Government
 contracts under FAR:
  
                    RESTRICTED RIGHTS LEGEND
  
 Use, reproduction and disclosure by the US Government is
 subject to restrictions as set forth in subparagraphs (a)
 and (c) of the Commercial Computer Software - Restricted
 Rights clause in FAR 52.227-19.
  
 Gaussian, Inc.
 340 Quinnipiac St., Bldg. 40, Wallingford CT 06492
  
  
 ---------------------------------------------------------------
 Warning -- This program may not be used in any manner that
 competes with the business of Gaussian, Inc. or will provide
 assistance to any competitor of Gaussian, Inc.  The licensee
 of this program is prohibited from giving any competitor of
 Gaussian, Inc. access to this program.  By using this program,
 the user acknowledges that Gaussian, Inc. is engaged in the
 business of creating and licensing software in the field of
 computational chemistry and represents and warrants to the
 licensee that it is not a competitor of Gaussian, Inc. and that
 it will not use this program in any manner prohibited above.
 ---------------------------------------------------------------
  

 Cite this work as:
 Gaussian 09, Revision C.01,
 M. J. Frisch, G. W. Trucks, H. B. Schlegel, G. E. Scuseria, 
 M. A. Robb, J. R. Cheeseman, G. Scalmani, V. Barone, B. Mennucci, 
 G. A. Petersson, H. Nakatsuji, M. Caricato, X. Li, H. P. Hratchian, 
 A. F. Izmaylov, J. Bloino, G. Zheng, J. L. Sonnenberg, M. Hada, 
 M. Ehara, K. Toyota, R. Fukuda, J. Hasegawa, M. Ishida, T. Nakajima, 
 Y. Honda, O. Kitao, H. Nakai, T. Vreven, J. A. Montgomery, Jr., 
 J. E. Peralta, F. Ogliaro, M. Bearpark, J. J. Heyd, E. Brothers, 
 K. N. Kudin, V. N. Staroverov, T. Keith, R. Kobayashi, J. Normand, 
 K. Raghavachari, A. Rendell, J. C. Burant, S. S. Iyengar, J. Tomasi, 
 M. Cossi, N. Rega, J. M. Millam, M. Klene, J. E. Knox, J. B. Cross, 
 V. Bakken, C. Adamo, J. Jaramillo, R. Gomperts, R. E. Stratmann, 
 O. Yazyev, A. J. Austin, R. Cammi, C. Pomelli, J. W. Ochterski, 
 R. L. Martin, K. Morokuma, V. G. Zakrzewski, G. A. Voth, 
 P. Salvador, J. J. Dannenberg, S. Dapprich, A. D. Daniels, 
 O. Farkas, J. B. Foresman, J. V. Ortiz, J. Cioslowski, 
 and D. J. Fox, Gaussian, Inc., Wallingford CT, 2010.
 
 ******************************************
 Gaussian 09:  AM64L-G09RevC.01 23-Sep-2011
                26-Oct-2016 
 ******************************************
 %NprocShared=8
 Will use up to    8 processors via shared memory.
 %Mem=25712MB
 ----------------------------------------------------------------------
 #T B3PW91/GenECP SCFCon=7 SCFCyc=250 GFInput GFOldPrint Opt=(MaxCyc=60
 ,CalcFC,TS,NoEigenTest) Integral=(Grid=UltraFine) NoSym Pop=Regular Ps
 eudo=Read IOp(1/33=0,2/11=1,3/27=8,6/7=3)
 ----------------------------------------------------------------------
 ------------
 TiO2 1 TS2-3
 ------------
 Charge =  0 Multiplicity = 1
 Symbolic Z-Matrix:
 Ti                    0.2848    0.00001  -0.36095 
 O                     0.76721  -1.37241   0.40892 
 O                     0.76695   1.37253   0.40891 
 O                    -1.44506   0.45872  -0.32563 
 H                    -1.50973   1.2941    0.15888 
 H                    -0.83972  -1.07885   0.55446 
 

 GradGradGradGradGradGradGradGradGradGradGradGradGradGradGradGradGradGrad
 Initialization pass.
                           ----------------------------
                           !    Initial Parameters    !
                           ! (Angstroms and Degrees)  !
 --------------------------                            --------------------------
 ! Name  Definition              Value          Derivative Info.                !
 --------------------------------------------------------------------------------
 ! R1    R(1,2)                  1.6459         calculate D2E/DX2 analytically  !
 ! R2    R(1,3)                  1.6459         calculate D2E/DX2 analytically  !
 ! R3    R(1,4)                  1.79           calculate D2E/DX2 analytically  !
 ! R4    R(1,6)                  1.8073         calculate D2E/DX2 analytically  !
 ! R5    R(4,5)                  0.9679         calculate D2E/DX2 analytically  !
 ! A1    A(2,1,3)              112.998          calculate D2E/DX2 analytically  !
 ! A2    A(2,1,4)              119.19           calculate D2E/DX2 analytically  !
 ! A3    A(2,1,6)               56.4751         calculate D2E/DX2 analytically  !
 ! A4    A(3,1,4)               93.4494         calculate D2E/DX2 analytically  !
 ! A5    A(3,1,6)              116.3044         calculate D2E/DX2 analytically  !
 ! A6    A(4,1,6)               62.7213         calculate D2E/DX2 analytically  !
 ! A7    A(1,4,5)              107.1954         calculate D2E/DX2 analytically  !
 ! D1    D(2,1,4,5)            115.6448         calculate D2E/DX2 analytically  !
 ! D2    D(3,1,4,5)             -3.1725         calculate D2E/DX2 analytically  !
 ! D3    D(6,1,4,5)            114.7587         calculate D2E/DX2 analytically  !
 --------------------------------------------------------------------------------
 Number of steps in this run=     60 maximum allowed number of steps=    100.
 Search for a saddle point of order  1.
 GradGradGradGradGradGradGradGradGradGradGradGradGradGradGradGradGradGrad

                          Input orientation:                          
 ---------------------------------------------------------------------
 Center     Atomic      Atomic             Coordinates (Angstroms)
 Number     Number       Type             X           Y           Z
 ---------------------------------------------------------------------
      1         22           0        0.284804    0.000010   -0.360950
      2          8           0        0.767210   -1.372411    0.408923
      3          8           0        0.766949    1.372529    0.408912
      4          8           0       -1.445061    0.458724   -0.325633
      5          1           0       -1.509732    1.294103    0.158881
      6          1           0       -0.839725   -1.078848    0.554459
 ---------------------------------------------------------------------
                    Distance matrix (angstroms):
                    1          2          3          4          5
     1  Ti   0.000000
     2  O    1.645892   0.000000
     3  O    1.645892   2.744940   0.000000
     4  O    1.790000   2.964249   2.503514   0.000000
     5  H    2.272721   3.515293   2.291711   0.967881   0.000000
     6  H    1.807339   1.640000   2.934593   1.872197   2.497256
                    6
     6  H    0.000000
 Symmetry turned off by external request.
 Framework group  C1[X(H2O3Ti)]
 Deg. of freedom    12
 Rotational constants (GHZ):      8.4558633      5.8941695      3.9812305
 ======================================================================================================
                                       Pseudopotential Parameters
 ======================================================================================================
  Center     Atomic      Valence      Angular      Power
  Number     Number     Electrons     Momentum     of R      Exponent        Coefficient   SO-Coeffient
 ======================================================================================================
    1         22           12
                                      F and up 
                                                     2        1.0000000        0.00000000    0.00000000
                                      S - F
                                                     2       13.0100000      158.24159300    0.00000000
                                                     2        5.8620000       17.51182400    0.00000000
                                      P - F
                                                     2       12.4600000       95.23512700    0.00000000
                                                     2        5.2170000       10.04785600    0.00000000
                                      D - F
                                                     2       15.3500000      -17.56886100    0.00000000
                                                     2        4.9800000       -0.58725600    0.00000000
    2          8
                                   No pseudopotential on this center.
    3          8
                                   No pseudopotential on this center.
    4          8
                                   No pseudopotential on this center.
    5          1
                                   No pseudopotential on this center.
    6          1
                                   No pseudopotential on this center.
 ======================================================================================================
 AO basis set in the form of general basis input (Overlap normalization):
      1 0
 S   3 1.00       0.000000000000
      0.1078036500D+02  0.1783892477D+01
      0.9717013000D+01 -0.2000689535D+01
      0.4507755000D+01 -0.7563332022D+00
 S   1 1.00       0.000000000000
      0.1246708000D+01  0.1000000000D+01
 S   1 1.00       0.000000000000
      0.5087070000D+00  0.1000000000D+01
 S   1 1.00       0.000000000000
      0.7343800000D-01  0.1000000000D+01
 S   1 1.00       0.000000000000
      0.3004800000D-01  0.1000000000D+01
 S   1 1.00       0.000000000000
      0.1000000000D-01  0.1000000000D+01
 P   2 1.00       0.000000000000
      0.1756638100D+02  0.8860101480D-01
      0.7705844000D+01 -0.1070746179D+01
 P   2 1.00       0.000000000000
      0.3329138000D+01  0.2001088977D+00
      0.1308104000D+01  0.8379855716D+00
 P   1 1.00       0.000000000000
      0.4544820000D+00  0.1000000000D+01
 P   1 1.00       0.000000000000
      0.7177200000D-01  0.1000000000D+01
 P   1 1.00       0.000000000000
      0.2378400000D-01  0.1000000000D+01
 D   4 1.00       0.000000000000
      0.1951919400D+02  0.3581400317D-01
      0.5864613000D+01  0.1723730152D+00
      0.1928038000D+01  0.4251360376D+00
      0.6065630000D+00  0.6025950533D+00
 D   1 1.00       0.000000000000
      0.1639610000D+00  0.1000000000D+01
 D   1 1.00       0.000000000000
      0.5000000000D-01  0.1000000000D+01
 F   1 1.00       0.000000000000
      0.5000000000D+00  0.1000000000D+01
 ****
      2 0
 S   6 1.00       0.000000000000
      0.5484671660D+04  0.1831074430D-02
      0.8252349460D+03  0.1395017220D-01
      0.1880469580D+03  0.6844507810D-01
      0.5296450000D+02  0.2327143360D+00
      0.1689757040D+02  0.4701928980D+00
      0.5799635340D+01  0.3585208530D+00
 SP   3 1.00       0.000000000000
      0.1553961625D+02 -0.1107775495D+00  0.7087426823D-01
      0.3599933586D+01 -0.1480262627D+00  0.3397528391D+00
      0.1013761750D+01  0.1130767015D+01  0.7271585773D+00
 SP   1 1.00       0.000000000000
      0.2700058226D+00  0.1000000000D+01  0.1000000000D+01
 D   1 1.00       0.000000000000
      0.8000000000D+00  0.1000000000D+01
 ****
      3 0
 S   6 1.00       0.000000000000
      0.5484671660D+04  0.1831074430D-02
      0.8252349460D+03  0.1395017220D-01
      0.1880469580D+03  0.6844507810D-01
      0.5296450000D+02  0.2327143360D+00
      0.1689757040D+02  0.4701928980D+00
      0.5799635340D+01  0.3585208530D+00
 SP   3 1.00       0.000000000000
      0.1553961625D+02 -0.1107775495D+00  0.7087426823D-01
      0.3599933586D+01 -0.1480262627D+00  0.3397528391D+00
      0.1013761750D+01  0.1130767015D+01  0.7271585773D+00
 SP   1 1.00       0.000000000000
      0.2700058226D+00  0.1000000000D+01  0.1000000000D+01
 D   1 1.00       0.000000000000
      0.8000000000D+00  0.1000000000D+01
 ****
      4 0
 S   6 1.00       0.000000000000
      0.5484671660D+04  0.1831074430D-02
      0.8252349460D+03  0.1395017220D-01
      0.1880469580D+03  0.6844507810D-01
      0.5296450000D+02  0.2327143360D+00
      0.1689757040D+02  0.4701928980D+00
      0.5799635340D+01  0.3585208530D+00
 SP   3 1.00       0.000000000000
      0.1553961625D+02 -0.1107775495D+00  0.7087426823D-01
      0.3599933586D+01 -0.1480262627D+00  0.3397528391D+00
      0.1013761750D+01  0.1130767015D+01  0.7271585773D+00
 SP   1 1.00       0.000000000000
      0.2700058226D+00  0.1000000000D+01  0.1000000000D+01
 D   1 1.00       0.000000000000
      0.8000000000D+00  0.1000000000D+01
 ****
      5 0
 S   3 1.00       0.000000000000
      0.1873113696D+02  0.3349460434D-01
      0.2825394365D+01  0.2347269535D+00
      0.6401216923D+00  0.8137573261D+00
 S   1 1.00       0.000000000000
      0.1612777588D+00  0.1000000000D+01
 P   1 1.00       0.000000000000
      0.1100000000D+01  0.1000000000D+01
 ****
      6 0
 S   3 1.00       0.000000000000
      0.1873113696D+02  0.3349460434D-01
      0.2825394365D+01  0.2347269535D+00
      0.6401216923D+00  0.8137573261D+00
 S   1 1.00       0.000000000000
      0.1612777588D+00  0.1000000000D+01
 P   1 1.00       0.000000000000
      0.1100000000D+01  0.1000000000D+01
 ****

 ***********************************************************************************************************************************
 *             ATOMIC CENTER             *        ATOMIC ORBITAL       *                     GAUSSIAN FUNCTIONS                    *
 ***********************************************************************************************************************************
 *                                       * FUNCTION    SHELL    SCALE  *                                                           *
 *    ATOM   X-COORD  Y-COORD  Z-COORD   *  NUMBER     TYPE     FACTOR *  EXPONENT    S-COEF      P-COEF      D-COEF      F-COEF   *
 ***********************************************************************************************************************************
 *     Ti     0.53820  0.00002 -0.68210                                                                                            *
+                                                1   S           1.00                                                               
+                                                                      0.107804D+020.756404D+010.000000D+000.000000D+000.000000D+00 
 *                                                                     0.971701D+01-.784765D+010.000000D+000.000000D+000.000000D+00*
 *                                                                     0.450776D+01-.166761D+010.000000D+000.000000D+000.000000D+00*
 *                                               2   S           1.00                                                              *
+                                                                      0.124671D+010.840879D+000.000000D+000.000000D+000.000000D+00 
 *                                               3   S           1.00                                                              *
+                                                                      0.508707D+000.429300D+000.000000D+000.000000D+000.000000D+00 
 *                                               4   S           1.00                                                              *
+                                                                      0.734380D-010.100543D+000.000000D+000.000000D+000.000000D+00 
 *                                               5   S           1.00                                                              *
+                                                                      0.300480D-010.514365D-010.000000D+000.000000D+000.000000D+00 
 *                                               6   S           1.00                                                              *
+                                                                      0.100000D-010.225377D-010.000000D+000.000000D+000.000000D+00 
 *                                           7-  9   P           1.00                                                              *
+                                                                      0.175664D+020.000000D+000.454184D+010.000000D+000.000000D+00 
 *                                                                     0.770584D+010.000000D+00-.195953D+020.000000D+000.000000D+00*
 *                                          10- 12   P           1.00                                                              *
+                                                                      0.332914D+010.000000D+000.128269D+010.000000D+000.000000D+00 
 *                                                                     0.130810D+010.000000D+000.167101D+010.000000D+000.000000D+00*
 *                                          13- 15   P           1.00                                                              *
+                                                                      0.454482D+000.000000D+000.531907D+000.000000D+000.000000D+00 
 *                                          16- 18   P           1.00                                                              *
+                                                                      0.717720D-010.000000D+000.529522D-010.000000D+000.000000D+00 
 *                                          19- 21   P           1.00                                                              *
+                                                                      0.237840D-010.000000D+000.133136D-010.000000D+000.000000D+00 
 *                                          22- 26   D           1.00                                                              *
+                                                                      0.195192D+020.000000D+000.000000D+000.106849D+020.000000D+00 
 *                                                                     0.586461D+010.000000D+000.000000D+000.627043D+010.000000D+00*
 *                                                                     0.192804D+010.000000D+000.000000D+000.220744D+010.000000D+00*
 *                                                                     0.606563D+000.000000D+000.000000D+000.413493D+000.000000D+00*
 *                                          27- 31   D           1.00                                                              *
+                                                                      0.163961D+000.000000D+000.000000D+000.695353D-010.000000D+00 
 *                                          32- 36   D           1.00                                                              *
+                                                                      0.500000D-010.000000D+000.000000D+000.870176D-020.000000D+00 
 *                                          31- 43   F           1.00                                                              *
+                                                                      0.500000D+000.000000D+000.000000D+000.000000D+000.309483D+00 
 *---------------------------------------------------------------------------------------------------------------------------------*
 *     O      1.44982 -2.59348  0.77275                                                                                            *
+                                               44   S           1.00                                                               
+                                                                      0.548467D+040.831724D+000.000000D+000.000000D+000.000000D+00 
 *                                                                     0.825235D+030.153082D+010.000000D+000.000000D+000.000000D+00*
 *                                                                     0.188047D+030.247715D+010.000000D+000.000000D+000.000000D+00*
 *                                                                     0.529645D+020.325628D+010.000000D+000.000000D+000.000000D+00*
 *                                                                     0.168976D+020.279289D+010.000000D+000.000000D+000.000000D+00*
 *                                                                     0.579964D+010.954938D+000.000000D+000.000000D+000.000000D+00*
 *                                          45- 48   SP          1.00                                                              *
+                                                                      0.155396D+02-.617934D+000.311694D+010.000000D+000.000000D+00 
 *                                                                     0.359993D+01-.275721D+000.240144D+010.000000D+000.000000D+00*
 *                                                                     0.101376D+010.814208D+000.105436D+010.000000D+000.000000D+00*
 *                                          49- 52   SP          1.00                                                              *
+                                                                      0.270006D+000.266956D+000.277432D+000.000000D+000.000000D+00 
 *                                          53- 57   D           1.00                                                              *
+                                                                      0.800000D+000.000000D+000.000000D+000.111382D+010.000000D+00 
 *---------------------------------------------------------------------------------------------------------------------------------*
 *     O      1.44932  2.59370  0.77273                                                                                            *
+                                               58   S           1.00                                                               
+                                                                      0.548467D+040.831724D+000.000000D+000.000000D+000.000000D+00 
 *                                                                     0.825235D+030.153082D+010.000000D+000.000000D+000.000000D+00*
 *                                                                     0.188047D+030.247715D+010.000000D+000.000000D+000.000000D+00*
 *                                                                     0.529645D+020.325628D+010.000000D+000.000000D+000.000000D+00*
 *                                                                     0.168976D+020.279289D+010.000000D+000.000000D+000.000000D+00*
 *                                                                     0.579964D+010.954938D+000.000000D+000.000000D+000.000000D+00*
 *                                          59- 62   SP          1.00                                                              *
+                                                                      0.155396D+02-.617934D+000.311694D+010.000000D+000.000000D+00 
 *                                                                     0.359993D+01-.275721D+000.240144D+010.000000D+000.000000D+00*
 *                                                                     0.101376D+010.814208D+000.105436D+010.000000D+000.000000D+00*
 *                                          63- 66   SP          1.00                                                              *
+                                                                      0.270006D+000.266956D+000.277432D+000.000000D+000.000000D+00 
 *                                          67- 71   D           1.00                                                              *
+                                                                      0.800000D+000.000000D+000.000000D+000.111382D+010.000000D+00 
 *---------------------------------------------------------------------------------------------------------------------------------*
 *     O     -2.73077  0.86686 -0.61536                                                                                            *
+                                               72   S           1.00                                                               
+                                                                      0.548467D+040.831724D+000.000000D+000.000000D+000.000000D+00 
 *                                                                     0.825235D+030.153082D+010.000000D+000.000000D+000.000000D+00*
 *                                                                     0.188047D+030.247715D+010.000000D+000.000000D+000.000000D+00*
 *                                                                     0.529645D+020.325628D+010.000000D+000.000000D+000.000000D+00*
 *                                                                     0.168976D+020.279289D+010.000000D+000.000000D+000.000000D+00*
 *                                                                     0.579964D+010.954938D+000.000000D+000.000000D+000.000000D+00*
 *                                          73- 76   SP          1.00                                                              *
+                                                                      0.155396D+02-.617934D+000.311694D+010.000000D+000.000000D+00 
 *                                                                     0.359993D+01-.275721D+000.240144D+010.000000D+000.000000D+00*
 *                                                                     0.101376D+010.814208D+000.105436D+010.000000D+000.000000D+00*
 *                                          77- 80   SP          1.00                                                              *
+                                                                      0.270006D+000.266956D+000.277432D+000.000000D+000.000000D+00 
 *                                          81- 85   D           1.00                                                              *
+                                                                      0.800000D+000.000000D+000.000000D+000.111382D+010.000000D+00 
 *---------------------------------------------------------------------------------------------------------------------------------*
 *     H     -2.85298  2.44550  0.30024                                                                                            *
+                                               86   S           1.00                                                               
+                                                                      0.187311D+020.214935D+000.000000D+000.000000D+000.000000D+00 
 *                                                                     0.282539D+010.364571D+000.000000D+000.000000D+000.000000D+00*
 *                                                                     0.640122D+000.415051D+000.000000D+000.000000D+000.000000D+00*
 *                                              87   S           1.00                                                              *
+                                                                      0.161278D+000.181381D+000.000000D+000.000000D+000.000000D+00 
 *                                          88- 90   P           1.00                                                              *
+                                                                      0.110000D+010.000000D+000.160576D+010.000000D+000.000000D+00 
 *---------------------------------------------------------------------------------------------------------------------------------*
 *     H     -1.58685 -2.03873  1.04778                                                                                            *
+                                               91   S           1.00                                                               
+                                                                      0.187311D+020.214935D+000.000000D+000.000000D+000.000000D+00 
 *                                                                     0.282539D+010.364571D+000.000000D+000.000000D+000.000000D+00*
 *                                                                     0.640122D+000.415051D+000.000000D+000.000000D+000.000000D+00*
 *                                              92   S           1.00                                                              *
+                                                                      0.161278D+000.181381D+000.000000D+000.000000D+000.000000D+00 
 *                                          93- 95   P           1.00                                                              *
+                                                                      0.110000D+010.000000D+000.160576D+010.000000D+000.000000D+00 
 ***********************************************************************************************************************************
    95 basis functions,   173 primitive gaussians,   104 cartesian basis functions
    19 alpha electrons       19 beta electrons
       nuclear repulsion energy       147.6325230916 Hartrees.
 NAtoms=    6 NActive=    6 NUniq=    6 SFac= 1.00D+00 NAtFMM=   60 NAOKFM=F Big=F
   1 Symmetry operations used in ECPInt.
 ECPInt:  NShTT=     561 NPrTT=    2216 LenC2=     559 LenP2D=    1876.
 LDataN:  DoStor=T MaxTD1= 6 Len=  172
 Harris functional with IExCor=  408 diagonalized for initial guess.
 ExpMin= 1.00D-02 ExpMax= 5.48D+03 ExpMxC= 8.25D+02 IAcc=3 IRadAn=         5 AccDes= 0.00D+00
 HarFok:  IExCor=  408 AccDes= 0.00D+00 IRadAn=         5 IDoV= 1
 ScaDFX=  1.000000  1.000000  1.000000  1.000000
 FoFCou: FMM=F IPFlag=           0 FMFlag=      100000 FMFlg1=           0
         NFxFlg=           0 DoJE=T BraDBF=F KetDBF=T FulRan=T
         Omega=  0.000000  0.000000  1.000000  0.000000  0.000000 ICntrl=     500 IOpCl=  0
         NMat0=    1 NMatS0=    1 NMatT0=    0 NMatD0=    1 NMtDS0=    0 NMtDT0=    0
         I1Cent=           4 NGrid=           0.
 Symmetry not used in FoFCou.
 EnCoef did     5 forward-backward iterations
 EnCoef did     2 forward-backward iterations
 EnCoef did     3 forward-backward iterations
 SCF Done:  E(RB3PW91) =  -285.120830306     A.U. after   14 cycles
             Convg  =    0.7628D-07             -V/T =  2.1364
 NROrb=     95 NOA=    19 NOB=    19 NVA=    76 NVB=    76
   1 Symmetry operations used in ECPInt.
 ECPInt:  NShTT=     561 NPrTT=    2216 LenC2=     559 LenP2D=    1876.
 LDataN:  DoStor=T MaxTD1= 7 Len=  274
 Symmetrizing basis deriv contribution to polar:
 IMax=3 JMax=2 DiffMx= 0.00D+00
 Calling FoFCou, ICntrl=  3107 FMM=F I1Cent=   0 AccDes= 0.00D+00.
 End of G2Drv Frequency-dependent properties file   721 does not exist.
 End of G2Drv Frequency-dependent properties file   722 does not exist.
          IDoAtm=111111
 End of Minotr Frequency-dependent properties file   721 does not exist.
 End of Minotr Frequency-dependent properties file   722 does not exist.

 **********************************************************************

            Population analysis using the SCF density.

 **********************************************************************

 Alpha  occ. eigenvalues --  -19.17518 -19.16968 -19.09250  -2.46748  -1.52154
 Alpha  occ. eigenvalues --   -1.50956  -1.50636  -1.00556  -0.91622  -0.84434
 Alpha  occ. eigenvalues --   -0.52061  -0.44849  -0.38768  -0.37907  -0.36732
 Alpha  occ. eigenvalues --   -0.33920  -0.30312  -0.29530  -0.27309
 Alpha virt. eigenvalues --   -0.14009  -0.07952  -0.04289  -0.01288  -0.00479
 Alpha virt. eigenvalues --    0.01424   0.02417   0.03502   0.04497   0.04852
 Alpha virt. eigenvalues --    0.06338   0.10750   0.11559   0.12409   0.13481
 Alpha virt. eigenvalues --    0.14647   0.15184   0.18019   0.23322   0.25449
 Alpha virt. eigenvalues --    0.28068   0.50387   0.51900   0.52713   0.55825
 Alpha virt. eigenvalues --    0.58494   0.82415   0.86060   0.90403   0.92534
 Alpha virt. eigenvalues --    0.94429   1.01415   1.04242   1.07466   1.11707
 Alpha virt. eigenvalues --    1.13394   1.14501   1.19156   1.24914   1.26966
 Alpha virt. eigenvalues --    1.27894   1.30438   1.32690   1.35819   1.38985
 Alpha virt. eigenvalues --    1.42134   1.57621   1.59855   1.64678   1.66298
 Alpha virt. eigenvalues --    1.74752   1.80479   1.82354   1.85372   1.93004
 Alpha virt. eigenvalues --    1.94169   2.04409   2.07394   2.11760   2.24233
 Alpha virt. eigenvalues --    2.29375   2.32592   2.40853   2.45958   2.56759
 Alpha virt. eigenvalues --    2.58779   2.61905   2.65810   2.77380   2.81659
 Alpha virt. eigenvalues --    2.97713   3.47007  24.41067  24.64185  24.76508
 Alpha virt. eigenvalues --   35.67287
     Molecular Orbital Coefficients:
                           1         2         3         4         5
                           O         O         O         O         O
     Eigenvalues --   -19.17518 -19.16968 -19.09250  -2.46748  -1.52154
   1 1   Ti 1S         -0.00014  -0.00011  -0.00009   0.39349   0.00610
   2        2S         -0.00076  -0.00088  -0.00076   0.70965   0.01242
   3        3S          0.00058   0.00136   0.00113   0.51868   0.00738
   4        4S          0.00606   0.00608   0.00596   0.01002  -0.00082
   5        5S         -0.00169  -0.00217  -0.00177  -0.00409   0.00038
   6        6S          0.00035   0.00047   0.00038   0.00114  -0.00012
   7        7PX         0.00012  -0.00002  -0.00002   0.00039  -0.02513
   8        7PY        -0.00002   0.00005  -0.00004  -0.00043   0.09095
   9        7PZ        -0.00002  -0.00004  -0.00004   0.00095  -0.03431
  10        8PX         0.00068  -0.00012  -0.00013   0.00266  -0.17061
  11        8PY        -0.00011   0.00032  -0.00029  -0.00240   0.61754
  12        8PZ        -0.00009  -0.00026  -0.00025   0.00735  -0.23271
  13        9PX        -0.00194   0.00057   0.00063  -0.00017  -0.09705
  14        9PY         0.00028  -0.00169   0.00150  -0.00487   0.35873
  15        9PZ         0.00024   0.00118   0.00113  -0.00469  -0.13392
  16       10PX        -0.00465   0.00152   0.00124  -0.00097   0.00020
  17       10PY         0.00071  -0.00452   0.00501  -0.00118   0.00387
  18       10PZ         0.00040   0.00236   0.00214  -0.00121  -0.00226
  19       11PX         0.00106  -0.00027  -0.00036  -0.00004  -0.00018
  20       11PY        -0.00019   0.00095  -0.00107   0.00032  -0.00092
  21       11PZ        -0.00011  -0.00061  -0.00055   0.00076   0.00051
  22       12D 0       -0.00018  -0.00007  -0.00005   0.00278   0.00247
  23       12D+1        0.00003   0.00006   0.00006  -0.00277  -0.00105
  24       12D-1       -0.00002  -0.00016   0.00007  -0.00198   0.01150
  25       12D+2        0.00025  -0.00016  -0.00014   0.00265   0.00668
  26       12D-2       -0.00015  -0.00011   0.00013  -0.00029   0.00579
  27       13D 0       -0.00131  -0.00018  -0.00041   0.00051   0.00234
  28       13D+1       -0.00029   0.00061   0.00062  -0.00130   0.00171
  29       13D-1       -0.00016  -0.00148   0.00173  -0.00041   0.00076
  30       13D+2        0.00137  -0.00094  -0.00096   0.00002   0.00367
  31       13D-2       -0.00159  -0.00095   0.00021   0.00157   0.00040
  32       14D 0       -0.00031   0.00005  -0.00018  -0.00045  -0.00004
  33       14D+1       -0.00012   0.00014   0.00014  -0.00003  -0.00021
  34       14D-1       -0.00005  -0.00077   0.00082  -0.00021  -0.00159
  35       14D+2        0.00062  -0.00049  -0.00035   0.00007  -0.00114
  36       14D-2        0.00000   0.00005   0.00009  -0.00028  -0.00015
  37       15F 0       -0.00008   0.00031   0.00023  -0.00124   0.00147
  38       15F+1        0.00006   0.00004   0.00008   0.00008   0.00143
  39       15F-1       -0.00002   0.00005  -0.00003  -0.00022   0.00171
  40       15F+2       -0.00004   0.00032   0.00029  -0.00095   0.00252
  41       15F-2       -0.00016   0.00015  -0.00034   0.00036   0.00183
  42       15F+3       -0.00004   0.00024   0.00023  -0.00063  -0.00036
  43       15F-3        0.00008  -0.00002   0.00020  -0.00011  -0.00006
  44 2   O  1S          0.00104   0.99515  -0.00010  -0.00596   0.03551
  45        2S          0.00019   0.02886   0.00015   0.00981  -0.07315
  46        2PX        -0.00003  -0.00072  -0.00003  -0.00326   0.01674
  47        2PY         0.00007   0.00092   0.00017   0.00909  -0.04240
  48        2PZ        -0.00006  -0.00048  -0.00006  -0.00512   0.02556
  49        3S         -0.00067  -0.01621   0.00001   0.00958  -0.05510
  50        3PX        -0.00004   0.00125  -0.00003  -0.00163   0.00605
  51        3PY        -0.00051  -0.00269  -0.00060   0.00500  -0.01297
  52        3PZ         0.00047   0.00130   0.00021  -0.00264   0.00753
  53        4D 0        0.00002   0.00014   0.00000  -0.00066   0.00138
  54        4D+1        0.00005  -0.00010  -0.00005   0.00073  -0.00175
  55        4D-1        0.00011   0.00029  -0.00004  -0.00222   0.00525
  56        4D+2        0.00000   0.00018   0.00009  -0.00164   0.00253
  57        4D-2       -0.00002   0.00023  -0.00007  -0.00143   0.00365
  58 3   O  1S         -0.00004   0.00011   0.99514  -0.00545  -0.01647
  59        2S          0.00002   0.00013   0.02872   0.00871   0.03393
  60        2PX        -0.00003  -0.00002  -0.00032  -0.00300  -0.01102
  61        2PY         0.00003  -0.00018  -0.00085  -0.00841  -0.01695
  62        2PZ         0.00001  -0.00004  -0.00049  -0.00472  -0.01693
  63        3S          0.00003   0.00016  -0.01602   0.00903   0.02488
  64        3PX         0.00060  -0.00004   0.00105  -0.00164  -0.00467
  65        3PY        -0.00021   0.00049   0.00236  -0.00454  -0.00268
  66        3PZ         0.00001  -0.00004   0.00124  -0.00225  -0.00630
  67        4D 0        0.00002   0.00002   0.00011  -0.00064   0.00069
  68        4D+1       -0.00004  -0.00006  -0.00011   0.00079   0.00165
  69        4D-1        0.00000   0.00012  -0.00023   0.00212   0.00299
  70        4D+2       -0.00009   0.00008   0.00019  -0.00176  -0.00016
  71        4D-2       -0.00004   0.00007  -0.00019   0.00142   0.00207
  72 4   O  1S          0.99505  -0.00102   0.00006  -0.00334  -0.01144
  73        2S          0.02889   0.00010   0.00002   0.00531   0.02406
  74        2PX         0.00081   0.00010  -0.00001   0.00601   0.01665
  75        2PY         0.00106  -0.00001  -0.00001  -0.00153   0.00177
  76        2PZ         0.00095   0.00002  -0.00001  -0.00001  -0.00127
  77        3S         -0.01467  -0.00036  -0.00023   0.00659   0.01885
  78        3PX        -0.00307  -0.00032  -0.00037   0.00431   0.00578
  79        3PY         0.00069  -0.00030  -0.00014  -0.00061   0.00191
  80        3PZ        -0.00008  -0.00014  -0.00003   0.00011  -0.00075
  81        4D 0        0.00013   0.00003  -0.00001  -0.00103  -0.00093
  82        4D+1       -0.00010   0.00006  -0.00003   0.00005  -0.00040
  83        4D-1        0.00066   0.00000   0.00006  -0.00009   0.00001
  84        4D+2       -0.00096   0.00006  -0.00008   0.00163   0.00224
  85        4D-2        0.00001  -0.00007  -0.00009  -0.00072   0.00068
  86 5   H  1S         -0.00089   0.00005  -0.00008   0.00047   0.00518
  87        2S          0.00019   0.00099  -0.00082  -0.00085  -0.00004
  88        3PX         0.00002   0.00008  -0.00003  -0.00006   0.00101
  89        3PY         0.00165  -0.00007   0.00000  -0.00022  -0.00117
  90        3PZ         0.00098  -0.00004   0.00000  -0.00013  -0.00066
  91 6   H  1S          0.00015   0.00046   0.00012   0.00215  -0.00883
  92        2S         -0.00073  -0.00053   0.00076  -0.00197  -0.00024
  93        3PX        -0.00010   0.00072   0.00009   0.00048  -0.00135
  94        3PY         0.00031  -0.00013   0.00004   0.00057  -0.00043
  95        3PZ        -0.00020  -0.00007  -0.00006  -0.00043   0.00072
                           6         7         8         9        10
                           O         O         O         O         O
     Eigenvalues --    -1.50956  -1.50636  -1.00556  -0.91622  -0.84434
   1 1   Ti 1S          0.00216  -0.00404  -0.03563  -0.04916  -0.03988
   2        2S          0.00423  -0.00223  -0.08018  -0.11173  -0.09288
   3        3S          0.00380  -0.01836  -0.04101  -0.06090  -0.04548
   4        4S         -0.00158  -0.00286  -0.00292   0.00413   0.01439
   5        5S          0.00027   0.00159   0.01138   0.00947   0.00588
   6        6S         -0.00024  -0.00029  -0.00167  -0.00152  -0.00068
   7        7PX         0.09778   0.01942   0.01820  -0.01008  -0.00749
   8        7PY         0.01640   0.03899  -0.00364   0.02193  -0.02456
   9        7PZ        -0.02879   0.09362  -0.00311  -0.01501  -0.01054
  10        8PX         0.66419   0.13204   0.12810  -0.07158  -0.05346
  11        8PY         0.11147   0.26507  -0.02561   0.15556  -0.17523
  12        8PZ        -0.19536   0.63597  -0.02198  -0.10664  -0.07528
  13        9PX         0.38284   0.07608   0.06567  -0.03730  -0.02632
  14        9PY         0.06551   0.15433  -0.01275   0.08233  -0.08980
  15        9PZ        -0.11285   0.36547  -0.01204  -0.05629  -0.03918
  16       10PX         0.00903  -0.00078   0.00509  -0.00603  -0.00148
  17       10PY         0.00254   0.00165  -0.00094   0.00682  -0.00480
  18       10PZ        -0.00385   0.00895  -0.00200  -0.00850  -0.00328
  19       11PX        -0.00190  -0.00008  -0.00678   0.00431   0.00261
  20       11PY        -0.00077  -0.00051   0.00250  -0.00601   0.00810
  21       11PZ         0.00081  -0.00222   0.00144   0.00552   0.00422
  22       12D 0        0.00207  -0.00223  -0.02712  -0.01450  -0.01533
  23       12D+1        0.00057   0.00286  -0.00205   0.02319   0.02217
  24       12D-1        0.00342   0.00070  -0.00257  -0.05476   0.07935
  25       12D+2       -0.00243  -0.00392   0.02911  -0.05939  -0.05180
  26       12D-2       -0.00166   0.00212  -0.02611  -0.02658   0.05003
  27       13D 0        0.00190  -0.00386  -0.00103  -0.00333  -0.00230
  28       13D+1       -0.00086  -0.00183  -0.00275  -0.00177   0.00081
  29       13D-1        0.00145  -0.00228  -0.00096  -0.00688   0.01061
  30       13D+2       -0.00297  -0.00163   0.00300  -0.00648  -0.00697
  31       13D-2       -0.00255   0.00045   0.00042   0.00004   0.01022
  32       14D 0       -0.00035   0.00038  -0.00157  -0.00110  -0.00046
  33       14D+1        0.00002  -0.00033   0.00004   0.00088   0.00038
  34       14D-1       -0.00023  -0.00046   0.00063   0.00049   0.00092
  35       14D+2        0.00105   0.00104   0.00076  -0.00029  -0.00142
  36       14D-2        0.00063  -0.00041  -0.00315  -0.00266   0.00148
  37       15F 0        0.00089  -0.00140  -0.00174  -0.00774  -0.00545
  38       15F+1       -0.00102  -0.00133   0.00503  -0.00131  -0.00074
  39       15F-1        0.00114  -0.00023  -0.00177  -0.00026   0.00100
  40       15F+2       -0.00238  -0.00269   0.00011  -0.00930  -0.00641
  41       15F-2       -0.00118   0.00113  -0.00076  -0.00401   0.00725
  42       15F+3        0.00116  -0.00225  -0.00493  -0.00632  -0.00489
  43       15F-3       -0.00143  -0.00074   0.00572   0.00255  -0.00462
  44 2   O  1S          0.00006  -0.00573  -0.02315  -0.22336   0.02858
  45        2S          0.00040   0.01177   0.04955   0.49361  -0.06610
  46        2PX         0.00954  -0.00133  -0.00110  -0.03095  -0.00202
  47        2PY         0.00213   0.01189   0.00918   0.03560  -0.00432
  48        2PZ        -0.00334   0.00451  -0.00663  -0.02333  -0.00622
  49        3S         -0.00148   0.00750   0.05468   0.54692  -0.06929
  50        3PX         0.00499  -0.00004  -0.00234  -0.03192   0.00191
  51        3PY        -0.00017   0.00460   0.00875   0.04196  -0.00043
  52        3PZ        -0.00044   0.00318  -0.00603  -0.02588  -0.00105
  53        4D 0        0.00076  -0.00211  -0.00042  -0.00482   0.00116
  54        4D+1       -0.00087  -0.00066  -0.00039  -0.00019   0.00122
  55        4D-1       -0.00071   0.00050  -0.00173  -0.00595   0.00043
  56        4D+2       -0.00139  -0.00183  -0.00036   0.00207  -0.00027
  57        4D-2        0.00203  -0.00067   0.00000  -0.00521   0.00050
  58 3   O  1S         -0.00904  -0.02546  -0.00824  -0.02768  -0.22551
  59        2S          0.01858   0.05237   0.01653   0.05890   0.49743
  60        2PX         0.00426  -0.01189  -0.00339  -0.00585  -0.01533
  61        2PY        -0.01216  -0.03454  -0.00071  -0.00553  -0.03660
  62        2PZ        -0.01038  -0.01302  -0.00156  -0.01058  -0.02305
  63        3S          0.01260   0.03660   0.02198   0.06572   0.54702
  64        3PX         0.00347  -0.00294  -0.00464  -0.00306  -0.01866
  65        3PY        -0.00366  -0.00949  -0.00184  -0.00826  -0.03763
  66        3PZ        -0.00372  -0.00150  -0.00144  -0.00455  -0.02499
  67        4D 0        0.00051  -0.00196  -0.00053   0.00028  -0.00169
  68        4D+1       -0.00043   0.00065   0.00049   0.00089   0.00077
  69        4D-1        0.00229   0.00239  -0.00001   0.00060   0.00582
  70        4D+2       -0.00185  -0.00302   0.00100  -0.00069  -0.00383
  71        4D-2       -0.00121   0.00230   0.00042   0.00038   0.00385
  72 4   O  1S          0.02248   0.00151  -0.21539   0.02395   0.00895
  73        2S         -0.04680  -0.00326   0.47137  -0.05406  -0.02136
  74        2PX        -0.02930  -0.00168   0.02769   0.00571  -0.00079
  75        2PY         0.00781   0.00286   0.07536  -0.00993   0.00062
  76        2PZ        -0.00323   0.00554   0.05512  -0.01001   0.00056
  77        3S         -0.03740  -0.00283   0.49034  -0.05640  -0.01935
  78        3PX        -0.01133  -0.00042   0.03915   0.00267   0.00183
  79        3PY         0.00389   0.00191   0.01678  -0.00135   0.00237
  80        3PZ        -0.00203   0.00316   0.02201  -0.00426   0.00075
  81        4D 0        0.00174   0.00022  -0.00396  -0.00007   0.00000
  82        4D+1       -0.00077   0.00171   0.00093  -0.00072   0.00054
  83        4D-1        0.00053  -0.00041   0.00312  -0.00066   0.00053
  84        4D+2       -0.00244   0.00037   0.00084   0.00071  -0.00013
  85        4D-2        0.00224   0.00088  -0.00405   0.00134   0.00113
  86 5   H  1S         -0.00795   0.00124   0.16365  -0.02043  -0.00064
  87        2S          0.00168  -0.00113   0.00815  -0.00578   0.00191
  88        3PX        -0.00109   0.00027   0.00090   0.00013   0.00121
  89        3PY         0.00184  -0.00027  -0.02141   0.00259   0.00120
  90        3PZ         0.00091  -0.00004  -0.01258   0.00163   0.00084
  91 6   H  1S         -0.01232   0.00144   0.01584   0.03407  -0.00271
  92        2S          0.00134  -0.00206   0.00601   0.01410  -0.00328
  93        3PX        -0.00097   0.00023  -0.00014   0.00421  -0.00067
  94        3PY        -0.00134   0.00047   0.00085  -0.00096  -0.00027
  95        3PZ         0.00103   0.00087  -0.00057  -0.00037  -0.00014
                          11        12        13        14        15
                           O         O         O         O         O
     Eigenvalues --    -0.52061  -0.44849  -0.38768  -0.37907  -0.36732
   1 1   Ti 1S          0.03431  -0.00014  -0.04748   0.03555  -0.00181
   2        2S          0.08228  -0.00190  -0.11352   0.08758  -0.00486
   3        3S          0.04515   0.00518  -0.07328   0.04980   0.00285
   4        4S         -0.07456   0.02744   0.12625  -0.08685  -0.04270
   5        5S          0.01416   0.00096  -0.07752   0.06315   0.01276
   6        6S         -0.00365  -0.00256   0.01184  -0.01276  -0.00361
   7        7PX        -0.01440  -0.00526   0.01359   0.00089   0.00114
   8        7PY        -0.00239  -0.00521   0.00021  -0.00913   0.00071
   9        7PZ        -0.00047   0.00744  -0.00366   0.00036  -0.00855
  10        8PX        -0.10519  -0.03820   0.10019   0.00701   0.00865
  11        8PY        -0.01719  -0.03797   0.00183  -0.06786   0.00567
  12        8PZ        -0.00334   0.05437  -0.02722   0.00337  -0.06265
  13        9PX        -0.04157  -0.00974   0.04097   0.00637   0.00043
  14        9PY        -0.00709  -0.01671  -0.00256  -0.03065   0.00300
  15        9PZ        -0.00179   0.01730  -0.00969   0.00510  -0.02146
  16       10PX         0.03879   0.02032  -0.01448   0.02191   0.00984
  17       10PY         0.01539   0.01975   0.03507  -0.03016   0.06520
  18       10PZ         0.00927  -0.03235   0.02212   0.06477   0.06208
  19       11PX        -0.00344   0.00211   0.02627   0.00911   0.00690
  20       11PY        -0.00099  -0.00245  -0.00307  -0.01577   0.00869
  21       11PZ         0.00084   0.00219  -0.00438   0.00922   0.00157
  22       12D 0        0.05023  -0.05036  -0.12387   0.07008   0.16226
  23       12D+1       -0.00589   0.13209  -0.09864  -0.07700   0.05523
  24       12D-1        0.01668   0.03676  -0.02698   0.19666  -0.19502
  25       12D+2       -0.11319   0.07128   0.07162   0.21134   0.13080
  26       12D-2       -0.05173  -0.17286  -0.16717   0.04229  -0.05825
  27       13D 0        0.01313  -0.01963  -0.03918   0.03184   0.08060
  28       13D+1       -0.00159   0.06199  -0.05248  -0.02917   0.01935
  29       13D-1        0.00916   0.01767   0.00456   0.06224  -0.07334
  30       13D+2       -0.03778   0.02678   0.00786   0.08136   0.06818
  31       13D-2       -0.04569  -0.08795  -0.05661  -0.00008  -0.02087
  32       14D 0        0.00310  -0.00259   0.01137   0.00280   0.02243
  33       14D+1       -0.00501   0.00638  -0.01384  -0.00909   0.01160
  34       14D-1       -0.00004  -0.00282   0.01780  -0.00871   0.00418
  35       14D+2       -0.00943  -0.00071  -0.02502  -0.00701   0.00408
  36       14D-2        0.00003  -0.00162   0.00168  -0.00446   0.00646
  37       15F 0       -0.00153   0.00796  -0.00636   0.00335   0.00202
  38       15F+1       -0.00548   0.00468   0.00509   0.00401   0.00472
  39       15F-1       -0.00040   0.00351   0.00019   0.00388  -0.01664
  40       15F+2        0.00130  -0.00240   0.00405   0.01810  -0.00044
  41       15F-2       -0.00972  -0.01245  -0.00502  -0.00165  -0.00729
  42       15F+3        0.01095  -0.01602  -0.00490  -0.00034   0.00668
  43       15F-3        0.00535   0.00398   0.00588  -0.00773  -0.00005
  44 2   O  1S         -0.01074  -0.02077   0.01481  -0.03039   0.00443
  45        2S          0.02900   0.05895  -0.03621   0.07131  -0.01021
  46        2PX         0.04750   0.32496  -0.01583   0.28901   0.00495
  47        2PY         0.00344   0.06035   0.08349  -0.28611   0.34349
  48        2PZ        -0.02250  -0.09637  -0.14580   0.21728   0.39873
  49        3S          0.02476   0.04855  -0.05758   0.12731  -0.00980
  50        3PX         0.02615   0.20575  -0.00889   0.19143  -0.00285
  51        3PY        -0.00462   0.02199   0.05435  -0.17425   0.22022
  52        3PZ        -0.00678  -0.05308  -0.09008   0.12763   0.26123
  53        4D 0        0.00283   0.00923   0.00230   0.00369  -0.01814
  54        4D+1       -0.00003  -0.00459   0.00097  -0.00902  -0.01013
  55        4D-1       -0.00092  -0.00551  -0.00649   0.00965   0.00750
  56        4D+2       -0.00307  -0.01612  -0.00038  -0.00082  -0.01119
  57        4D-2        0.00161   0.01377  -0.00027   0.01314  -0.00668
  58 3   O  1S          0.00563  -0.00559   0.00404  -0.00474  -0.01401
  59        2S         -0.01402   0.01267  -0.01096   0.01048   0.02579
  60        2PX        -0.04956   0.00650  -0.10272   0.03123   0.08520
  61        2PY         0.01099   0.01218   0.07537  -0.04976   0.09276
  62        2PZ         0.00426   0.02511  -0.00049   0.13112   0.15170
  63        3S         -0.01305   0.02321  -0.01772   0.02940   0.08726
  64        3PX        -0.02505   0.00774  -0.06826   0.01800   0.04267
  65        3PY         0.00043   0.00464   0.03886  -0.03007   0.04240
  66        3PZ        -0.00273   0.00846  -0.00233   0.07252   0.07806
  67        4D 0       -0.00076  -0.00110  -0.00020  -0.00664  -0.00302
  68        4D+1        0.00157   0.00040   0.00315  -0.00462  -0.00397
  69        4D-1        0.00018  -0.00096  -0.00144  -0.00329  -0.00734
  70        4D+2        0.00144  -0.00016   0.00701  -0.00320  -0.00127
  71        4D-2        0.00190  -0.00099   0.00312   0.00042  -0.00411
  72 4   O  1S          0.04929  -0.02060   0.03222   0.00357   0.00692
  73        2S         -0.10441   0.05362  -0.08062  -0.00805  -0.01590
  74        2PX        -0.11470   0.13361   0.50461   0.01501   0.08243
  75        2PY         0.45200   0.00923   0.00593  -0.13575   0.06261
  76        2PZ         0.18602  -0.26483   0.21228   0.28735  -0.02382
  77        3S         -0.19978   0.06255  -0.11333  -0.01646  -0.03136
  78        3PX        -0.08007   0.06954   0.35213   0.00374   0.05767
  79        3PY         0.26105   0.01384  -0.00337  -0.10115   0.04426
  80        3PZ         0.09854  -0.17102   0.14852   0.20597  -0.01934
  81        4D 0        0.00276  -0.00693  -0.00390   0.00702  -0.00131
  82        4D+1        0.00231  -0.00840   0.01634   0.01065  -0.00085
  83        4D-1        0.01530  -0.00071   0.00090   0.00215   0.00020
  84        4D+2       -0.01146   0.00823   0.01451   0.00226   0.00166
  85        4D-2        0.01369   0.00526   0.00944  -0.00623   0.00209
  86 5   H  1S          0.24935  -0.06762   0.02005   0.01085   0.01590
  87        2S          0.12834  -0.05174  -0.00576   0.00794   0.01128
  88        3PX        -0.00100   0.00343   0.01617   0.00007   0.00262
  89        3PY        -0.01243   0.00657  -0.00225  -0.00587  -0.00008
  90        3PZ        -0.00934  -0.00462   0.00505   0.00849  -0.00175
  91 6   H  1S         -0.10278  -0.23235   0.05323  -0.03836   0.02400
  92        2S         -0.08496  -0.23235   0.05442  -0.03576   0.03634
  93        3PX        -0.00035  -0.01177   0.00080  -0.00860   0.00491
  94        3PY        -0.00500  -0.00441   0.00394   0.00351   0.00338
  95        3PZ         0.00521   0.00460  -0.00133   0.00252   0.00537
                          16        17        18        19        20
                           O         O         O         O         V
     Eigenvalues --    -0.33920  -0.30312  -0.29530  -0.27309  -0.14009
   1 1   Ti 1S         -0.01164   0.05652   0.03949   0.00001  -0.02721
   2        2S         -0.02901   0.13891   0.09801   0.00057  -0.05804
   3        3S         -0.01603   0.08212   0.05609  -0.00145  -0.08181
   4        4S          0.01666  -0.14561  -0.12920  -0.00424   0.13010
   5        5S         -0.00773   0.09041   0.09142   0.00307   0.17724
   6        6S          0.00084  -0.01459  -0.01661   0.00154   0.02171
   7        7PX        -0.01384   0.00054   0.00931  -0.00283  -0.00348
   8        7PY         0.01471   0.00465   0.00931   0.01612   0.00337
   9        7PZ        -0.00727   0.01370   0.00304  -0.00121   0.00421
  10        8PX        -0.10249   0.00441   0.06888  -0.02068  -0.02598
  11        8PY         0.10924   0.03487   0.06957   0.11982   0.02491
  12        8PZ        -0.05394   0.10167   0.02307  -0.00876   0.03154
  13        9PX        -0.03717   0.00362   0.02648  -0.01132  -0.00366
  14        9PY         0.04502   0.01541   0.02802   0.05301   0.01239
  15        9PZ        -0.02045   0.04257   0.01230  -0.00418   0.00462
  16       10PX         0.00304   0.05914  -0.08228   0.05788   0.05050
  17       10PY         0.00004   0.04581   0.01588  -0.06358  -0.01101
  18       10PZ         0.02524  -0.04246   0.02284   0.01298  -0.10116
  19       11PX        -0.01192   0.00402  -0.00901   0.00400  -0.04551
  20       11PY         0.01627   0.01461   0.00946   0.01317  -0.01848
  21       11PZ        -0.00247   0.01249   0.00751   0.00364   0.01028
  22       12D 0       -0.01274  -0.10576   0.14527   0.05654   0.05832
  23       12D+1        0.01464  -0.12861  -0.11767   0.06397  -0.11656
  24       12D-1       -0.11814  -0.23953  -0.01863  -0.03600   0.01049
  25       12D+2       -0.08710   0.14083  -0.02923   0.13159   0.09506
  26       12D-2       -0.08282   0.00161  -0.20551  -0.01511   0.06569
  27       13D 0       -0.00870  -0.05802   0.05604   0.02514   0.01252
  28       13D+1       -0.01476  -0.03449  -0.03604   0.03180  -0.04695
  29       13D-1       -0.01847  -0.08548   0.02488   0.01903   0.00555
  30       13D+2       -0.00023   0.02665  -0.03052   0.05829   0.04750
  31       13D-2       -0.01992   0.01115  -0.08871   0.01456   0.01839
  32       14D 0       -0.00769  -0.03037  -0.00404   0.00834  -0.02326
  33       14D+1       -0.02690   0.00546   0.00078   0.01442   0.00739
  34       14D-1        0.03082   0.00627   0.03426   0.03962   0.00027
  35       14D+2        0.04486  -0.03466  -0.01614  -0.00130   0.01948
  36       14D-2        0.00797   0.01996  -0.01548   0.01856  -0.05130
  37       15F 0       -0.00863   0.00609   0.00479   0.00147   0.00091
  38       15F+1       -0.00344  -0.00301   0.00023   0.00209  -0.00667
  39       15F-1        0.00420  -0.00832   0.01166   0.01856   0.00187
  40       15F+2        0.00486   0.01185  -0.00653   0.00474   0.00839
  41       15F-2       -0.01180  -0.00365  -0.00653   0.01208   0.00871
  42       15F+3       -0.01275  -0.00036   0.01306   0.00102   0.00991
  43       15F-3       -0.00928   0.00507  -0.00663   0.02113  -0.02124
  44 2   O  1S          0.00817  -0.00646  -0.00168   0.00631   0.02972
  45        2S         -0.01634   0.01967   0.00425  -0.02165  -0.07938
  46        2PX         0.16151   0.01477  -0.07272  -0.11960   0.37222
  47        2PY         0.35621  -0.15602  -0.08595  -0.04050   0.02782
  48        2PZ        -0.23628  -0.02038  -0.06255  -0.26560  -0.08438
  49        3S         -0.02534   0.01335   0.01279   0.00100  -0.14855
  50        3PX         0.12959   0.01527  -0.05461  -0.09800   0.30410
  51        3PY         0.23680  -0.11941  -0.06690  -0.02328   0.04022
  52        3PZ        -0.16078  -0.01052  -0.04026  -0.20483  -0.07903
  53        4D 0        0.00271   0.00151   0.00233   0.00166   0.00051
  54        4D+1        0.00069  -0.00038   0.00060   0.00395  -0.00842
  55        4D-1       -0.01040  -0.00028   0.00020  -0.00317  -0.00076
  56        4D+2       -0.01331   0.00446   0.00271   0.00209   0.00253
  57        4D-2       -0.00016   0.00175  -0.00197   0.00045   0.00770
  58 3   O  1S         -0.00473  -0.02297  -0.01732  -0.00767   0.00772
  59        2S          0.01039   0.05116   0.04081   0.02001  -0.02011
  60        2PX         0.02620   0.27154  -0.31887   0.35559  -0.04290
  61        2PY         0.04638   0.46550   0.27459  -0.11830   0.03978
  62        2PZ         0.00379  -0.10455   0.34786   0.39659  -0.00958
  63        3S          0.02041   0.09904   0.06587   0.02128  -0.03396
  64        3PX         0.02522   0.17980  -0.21452   0.24666  -0.03327
  65        3PY         0.02533   0.30147   0.18506  -0.08424   0.03035
  66        3PZ         0.00013  -0.07544   0.23549   0.27628  -0.00321
  67        4D 0        0.00177   0.01378  -0.00606  -0.00842   0.00045
  68        4D+1       -0.00019  -0.00309   0.00339  -0.01058  -0.00154
  69        4D-1       -0.00099  -0.00039  -0.01399  -0.00708  -0.00210
  70        4D+2       -0.00001   0.00896   0.01074  -0.00845   0.00085
  71        4D-2       -0.00122  -0.01307   0.01011  -0.00784  -0.00139
  72 4   O  1S         -0.00560  -0.00100  -0.00844   0.00525   0.03753
  73        2S          0.01410   0.00592   0.01819  -0.00969  -0.09392
  74        2PX        -0.25386  -0.02067  -0.12286   0.05061  -0.06390
  75        2PY        -0.21972   0.02074  -0.07539   0.10334   0.17120
  76        2PZ         0.28932   0.02083  -0.09782  -0.01110  -0.18500
  77        3S          0.01100   0.00063   0.03503  -0.02378  -0.21825
  78        3PX        -0.18972  -0.02910  -0.08538   0.02720  -0.05029
  79        3PY        -0.16326   0.01262  -0.05752   0.08183   0.13841
  80        3PZ         0.22201   0.01210  -0.07282  -0.01342  -0.15425
  81        4D 0        0.01096  -0.00081   0.00090  -0.00058  -0.00514
  82        4D+1        0.00243  -0.00077  -0.00088  -0.00148  -0.00185
  83        4D-1       -0.00032  -0.00108  -0.00326   0.00176  -0.00579
  84        4D+2       -0.00171  -0.00108   0.00164  -0.00170  -0.01128
  85        4D-2       -0.00813  -0.00244  -0.00007  -0.00098  -0.00090
  86 5   H  1S         -0.01313   0.01160  -0.04553   0.03218   0.04419
  87        2S         -0.02461   0.00943  -0.03262   0.01934   0.05754
  88        3PX        -0.00874  -0.00210  -0.00108  -0.00174  -0.00226
  89        3PY        -0.00567  -0.00107   0.00390  -0.00222   0.00697
  90        3PZ         0.01014  -0.00175   0.00152  -0.00253  -0.00647
  91 6   H  1S         -0.02615  -0.01474  -0.00280   0.03242   0.30257
  92        2S         -0.04575  -0.01147   0.02057   0.05436   0.54497
  93        3PX        -0.00821   0.00074   0.00059   0.00247  -0.00474
  94        3PY         0.00666   0.00071  -0.00133  -0.00193   0.00602
  95        3PZ        -0.00110  -0.00132   0.00114  -0.00227  -0.00338
                          21        22        23        24        25
                           V         V         V         V         V
     Eigenvalues --    -0.07952  -0.04289  -0.01288  -0.00479   0.01424
   1 1   Ti 1S         -0.05960   0.00351  -0.01631  -0.00149   0.01157
   2        2S         -0.13732   0.01107  -0.03768  -0.00113   0.02595
   3        3S         -0.14368  -0.00538  -0.03981  -0.01723   0.03254
   4        4S          0.52018  -0.05347   0.19923   0.05834   0.02903
   5        5S          0.05975   0.16969  -0.04519  -0.27652  -0.76276
   6        6S          0.05116   0.13718  -0.11829   0.90600   1.03127
   7        7PX        -0.00532   0.01115   0.00423  -0.00606   0.00209
   8        7PY        -0.00232   0.00343  -0.00862   0.00518  -0.01544
   9        7PZ         0.01319   0.01081  -0.00051  -0.00076  -0.00427
  10        8PX        -0.04035   0.08403   0.03174  -0.04506   0.01525
  11        8PY        -0.01732   0.02575  -0.06517   0.03872  -0.11592
  12        8PZ         0.09928   0.08138  -0.00392  -0.00634  -0.03210
  13        9PX        -0.00861   0.03556   0.00760  -0.02034   0.01228
  14        9PY        -0.00812   0.01244  -0.03405   0.01976  -0.05762
  15        9PZ         0.02033   0.02542   0.00451   0.00547  -0.00599
  16       10PX         0.05903  -0.11749  -0.12952   0.15910   0.01855
  17       10PY        -0.00072  -0.04325   0.05484  -0.11677   0.23800
  18       10PZ        -0.23721  -0.20146   0.03314   0.03912   0.10678
  19       11PX         0.08794  -0.12060   0.07449  -0.04418  -0.26032
  20       11PY         0.01928  -0.03938   0.24685   0.10243   0.05037
  21       11PZ        -0.15284  -0.03840  -0.06527  -0.28295   0.28711
  22       12D 0        0.45180   0.22522   0.03414  -0.41805   0.16560
  23       12D+1       -0.28395   0.62983   0.04838  -0.02946  -0.06020
  24       12D-1        0.00392   0.02629  -0.46974   0.05599  -0.20762
  25       12D+2       -0.02228  -0.01366   0.08550   0.17542  -0.21733
  26       12D-2       -0.04433   0.00996   0.51935   0.08248  -0.20643
  27       13D 0        0.21023   0.10301   0.01677  -0.18346   0.08461
  28       13D+1       -0.14456   0.31476   0.00383  -0.00967  -0.01699
  29       13D-1       -0.00022   0.03789  -0.25709   0.03657  -0.14550
  30       13D+2       -0.00864  -0.04767   0.04421   0.06797  -0.09890
  31       13D-2       -0.02062   0.02530   0.26412   0.06848  -0.13842
  32       14D 0        0.07725   0.00929   0.02071   0.05299  -0.02334
  33       14D+1       -0.03707   0.01544   0.00384  -0.02729  -0.04753
  34       14D-1        0.00156   0.04857  -0.01983   0.06661  -0.20121
  35       14D+2        0.00184  -0.09303  -0.01945   0.04196   0.04506
  36       14D-2        0.00494   0.05657  -0.13774  -0.02645  -0.00667
  37       15F 0       -0.00567  -0.00305  -0.00481   0.00484  -0.00256
  38       15F+1        0.00192  -0.00763   0.00034   0.00426  -0.00216
  39       15F-1       -0.00682  -0.00228   0.01557   0.00267   0.00548
  40       15F+2       -0.00007   0.00289  -0.00518  -0.00774   0.00178
  41       15F-2        0.00018  -0.00921  -0.00294  -0.00427   0.00421
  42       15F+3       -0.00540   0.00024   0.00431   0.00605  -0.01192
  43       15F-3        0.00809  -0.00192  -0.00546  -0.00174   0.00853
  44 2   O  1S         -0.00275   0.00745  -0.01001  -0.00309   0.00822
  45        2S          0.00484  -0.01305   0.03088   0.00465  -0.00323
  46        2PX        -0.09541   0.00144   0.09138  -0.12795   0.05792
  47        2PY        -0.02183  -0.05950  -0.09230   0.07752  -0.11921
  48        2PZ        -0.01699  -0.02466  -0.11931   0.09688  -0.07642
  49        3S          0.01669  -0.06151   0.03719   0.02912  -0.12335
  50        3PX        -0.07844   0.01353   0.10295  -0.12267   0.07207
  51        3PY        -0.02262  -0.07164  -0.09071   0.07451  -0.15946
  52        3PZ        -0.01868  -0.01896  -0.12515   0.09532  -0.05810
  53        4D 0        0.00173  -0.00218  -0.00848   0.00108   0.00118
  54        4D+1       -0.00112   0.00206   0.00586   0.00145  -0.00123
  55        4D-1        0.00633   0.00441   0.00372  -0.00249  -0.00102
  56        4D+2       -0.00165  -0.00676   0.00035   0.00334  -0.00383
  57        4D-2       -0.00596   0.00607  -0.00731   0.00286  -0.00241
  58 3   O  1S          0.00738   0.00902   0.00302   0.01107  -0.00300
  59        2S         -0.02027  -0.01406  -0.01418  -0.02467  -0.00242
  60        2PX         0.06363   0.00397  -0.18354  -0.09054   0.08924
  61        2PY        -0.01231   0.14617  -0.08182  -0.01258  -0.14148
  62        2PZ        -0.07811  -0.05823   0.11972   0.09721  -0.04209
  63        3S         -0.03708  -0.09273   0.01228  -0.08281   0.06549
  64        3PX         0.06659  -0.00514  -0.18975  -0.08906   0.09338
  65        3PY        -0.00806   0.15163  -0.08280   0.00619  -0.14639
  66        3PZ        -0.07779  -0.04836   0.11845   0.09947  -0.03707
  67        4D 0        0.00098  -0.00212   0.00433  -0.00029   0.00317
  68        4D+1       -0.00279   0.00094  -0.00374  -0.00159   0.00201
  69        4D-1       -0.00469  -0.00310   0.00084   0.00292  -0.00246
  70        4D+2        0.00067  -0.00398  -0.00219   0.00259   0.00127
  71        4D-2        0.00283  -0.00418  -0.00585  -0.00434   0.00342
  72 4   O  1S         -0.01015   0.02037   0.00657   0.02116  -0.00669
  73        2S          0.02234  -0.05357  -0.01769  -0.04446   0.00807
  74        2PX         0.01376   0.06749   0.04671  -0.04567   0.05563
  75        2PY        -0.05051  -0.05806  -0.03967  -0.03633  -0.06241
  76        2PZ         0.03700   0.15763   0.02290   0.00215  -0.01693
  77        3S          0.06932  -0.11720  -0.06120  -0.17735   0.06939
  78        3PX         0.01056   0.08421   0.07698  -0.05316   0.04802
  79        3PY        -0.03829  -0.08229  -0.04771  -0.04019  -0.05047
  80        3PZ         0.02887   0.15001   0.02354  -0.02074   0.00410
  81        4D 0        0.00770   0.00672   0.00102  -0.00474   0.00459
  82        4D+1        0.00539  -0.01216  -0.00305  -0.00034   0.00155
  83        4D-1       -0.00128   0.01042   0.00142   0.00454  -0.00831
  84        4D+2        0.00301  -0.00374  -0.00792   0.00164   0.00554
  85        4D-2        0.00268   0.00077  -0.00880  -0.00715   0.01030
  86 5   H  1S         -0.02881   0.06052   0.04540   0.03440  -0.04822
  87        2S         -0.05684   0.16000   0.11067   0.18261  -0.10908
  88        3PX         0.00147   0.00158   0.00264  -0.00278   0.00102
  89        3PY        -0.00192   0.00008   0.00356   0.00334   0.00224
  90        3PZ         0.00138   0.00637   0.00262   0.00273   0.00204
  91 6   H  1S         -0.12024  -0.00040  -0.03985  -0.07955   0.00299
  92        2S         -0.28867   0.09556  -0.25254  -0.19495   0.04922
  93        3PX         0.00410  -0.00861   0.00580   0.00329  -0.00478
  94        3PY         0.00394  -0.00795   0.01070  -0.00323   0.00247
  95        3PZ         0.00396  -0.00019  -0.01077  -0.00477   0.00941
                          26        27        28        29        30
                           V         V         V         V         V
     Eigenvalues --     0.02417   0.03502   0.04497   0.04852   0.06338
   1 1   Ti 1S         -0.01826  -0.00681  -0.03223  -0.00159   0.00867
   2        2S         -0.04522  -0.00912  -0.07663  -0.00953   0.01857
   3        3S         -0.02804  -0.04465  -0.07020   0.02553   0.03306
   4        4S         -0.08368   0.05434   0.32070  -0.55765  -0.75928
   5        5S          0.44982   0.18949  -0.29580   1.27221   1.88537
   6        6S         -0.43090  -0.03657   0.19863  -0.78674  -0.91871
   7        7PX        -0.00475  -0.00377  -0.00530  -0.01096   0.00532
   8        7PY         0.00420  -0.00028   0.00310  -0.01636  -0.00078
   9        7PZ         0.00092   0.00087   0.00205  -0.00099   0.01035
  10        8PX        -0.03543  -0.02804  -0.03971  -0.08204   0.03959
  11        8PY         0.03154  -0.00213   0.02311  -0.12337  -0.00557
  12        8PZ         0.00714   0.00675   0.01573  -0.00773   0.07748
  13        9PX        -0.01088  -0.01053  -0.02376  -0.02762   0.02174
  14        9PY         0.01388   0.00235   0.01401  -0.05382  -0.01021
  15        9PZ        -0.00698  -0.00666   0.00509  -0.01345   0.03030
  16       10PX         0.24234  -0.19811   0.24029   0.29128  -0.10419
  17       10PY        -0.30813  -0.10088   0.15559   0.43213  -0.03417
  18       10PZ        -0.10499  -0.11657  -0.30915   0.00284  -0.43303
  19       11PX        -0.61832   0.84922  -0.36004  -0.32327   0.02688
  20       11PY         0.83190   0.30965  -0.60143  -0.49361   0.01864
  21       11PZ         0.23156   0.48948   0.79938  -0.17473   0.56883
  22       12D 0        0.00275   0.05450   0.10499  -0.14826  -0.29091
  23       12D+1       -0.03855   0.26047  -0.06845   0.16016  -0.08297
  24       12D-1        0.23299   0.06893  -0.05310  -0.26834  -0.07545
  25       12D+2        0.22136   0.12570   0.24524   0.25554  -0.46062
  26       12D-2       -0.10590  -0.09071   0.19270  -0.33651   0.01911
  27       13D 0        0.03575   0.00049   0.06994  -0.04344  -0.10448
  28       13D+1       -0.01716   0.09856  -0.02438   0.06663  -0.02537
  29       13D-1        0.07428  -0.00157   0.03741  -0.14207  -0.02872
  30       13D+2        0.08254   0.11516   0.10630   0.13409  -0.19612
  31       13D-2       -0.01258  -0.06884   0.12564  -0.19266   0.03547
  32       14D 0       -0.04141  -0.08383  -0.10623   0.00891   0.16151
  33       14D+1       -0.01857  -0.26464  -0.05473  -0.20095   0.05273
  34       14D-1       -0.06194  -0.10728   0.23839  -0.19425   0.03365
  35       14D+2        0.06446   0.03816  -0.00700   0.10736  -0.01132
  36       14D-2       -0.05118  -0.04070  -0.07193   0.00840   0.02491
  37       15F 0        0.00371   0.00515   0.00387   0.00458   0.01459
  38       15F+1       -0.00672  -0.00152  -0.00106  -0.00588   0.00428
  39       15F-1       -0.00213  -0.00134  -0.00409   0.00893   0.00571
  40       15F+2       -0.00017  -0.00053  -0.00662  -0.00396   0.01589
  41       15F-2       -0.00055  -0.00064  -0.00284   0.00340  -0.00263
  42       15F+3        0.00057   0.00283   0.00012   0.00493   0.01059
  43       15F-3       -0.00223   0.00089  -0.00155  -0.00284   0.00483
  44 2   O  1S         -0.01719   0.01282  -0.00387   0.01460   0.01880
  45        2S          0.04347  -0.03748  -0.01278  -0.03596  -0.04815
  46        2PX        -0.08663  -0.09792  -0.09903  -0.11063   0.05488
  47        2PY         0.00718  -0.04561   0.06082  -0.12188  -0.00191
  48        2PZ        -0.01612  -0.04601  -0.05134  -0.00435   0.12900
  49        3S          0.09836  -0.07648   0.13157  -0.08920  -0.11000
  50        3PX        -0.09691  -0.10045  -0.11066  -0.12398   0.06330
  51        3PY         0.02753  -0.03265   0.09243  -0.13505   0.01912
  52        3PZ        -0.02003  -0.03744  -0.05195  -0.01582   0.12742
  53        4D 0        0.00359  -0.00136  -0.00235  -0.00431   0.00873
  54        4D+1       -0.00322  -0.00295   0.00096  -0.00721   0.00970
  55        4D-1       -0.00234   0.00037   0.00346  -0.00569  -0.00649
  56        4D+2       -0.00001   0.00099  -0.00377  -0.00645  -0.00026
  57        4D-2        0.00529   0.00415  -0.00266   0.00721  -0.00541
  58 3   O  1S          0.01085   0.01411   0.00116  -0.01560   0.02432
  59        2S         -0.03944  -0.05037   0.00364   0.02185  -0.06472
  60        2PX         0.04136  -0.08629  -0.06774  -0.08316   0.09518
  61        2PY         0.00003   0.02591   0.04440  -0.12625  -0.02943
  62        2PZ        -0.06918  -0.05801  -0.08149   0.00131   0.14297
  63        3S         -0.00824  -0.00522  -0.06026   0.16279  -0.13396
  64        3PX         0.02120  -0.07046  -0.07478  -0.08716   0.07981
  65        3PY        -0.00499   0.00198   0.04629  -0.16453  -0.05814
  66        3PZ        -0.07763  -0.05799  -0.07108  -0.01453   0.13780
  67        4D 0       -0.00466  -0.00303   0.00120   0.00091   0.00765
  68        4D+1       -0.00253  -0.00036  -0.00418  -0.00003   0.00643
  69        4D-1       -0.00041  -0.00226   0.00183  -0.00102   0.00664
  70        4D+2       -0.00108  -0.00163  -0.00028   0.00221   0.00382
  71        4D-2       -0.00093  -0.00080  -0.00489  -0.00403   0.00351
  72 4   O  1S          0.03109  -0.00007   0.00748   0.01971   0.00303
  73        2S         -0.08398   0.01784  -0.01624  -0.04773  -0.01831
  74        2PX        -0.01922  -0.07355   0.01426  -0.10393   0.05370
  75        2PY        -0.07795  -0.01818  -0.01350  -0.02916  -0.07634
  76        2PZ        -0.04836  -0.02034  -0.05214   0.04503   0.02469
  77        3S         -0.20858  -0.08856  -0.06315  -0.14456   0.00292
  78        3PX         0.01206  -0.10427   0.02502  -0.11446   0.09219
  79        3PY        -0.07493   0.00815  -0.02587  -0.01163  -0.07818
  80        3PZ        -0.04642  -0.01425  -0.05412   0.05090   0.03824
  81        4D 0       -0.00221   0.00104  -0.00196  -0.00059   0.00182
  82        4D+1        0.00072  -0.00862  -0.00108  -0.00828  -0.00010
  83        4D-1        0.00251   0.00161   0.00710  -0.00141   0.00176
  84        4D+2        0.00360  -0.00073   0.00063   0.01137  -0.00059
  85        4D-2       -0.00559  -0.00124  -0.00769   0.00234   0.00879
  86 5   H  1S          0.03254   0.00262   0.03703  -0.01515   0.00525
  87        2S          0.19360  -0.00206   0.12796  -0.04378   0.03201
  88        3PX        -0.00474  -0.00064  -0.00104  -0.00407   0.00155
  89        3PY         0.01122   0.00040   0.00347   0.00006   0.00402
  90        3PZ         0.00588   0.00172   0.00402   0.00304   0.00560
  91 6   H  1S         -0.02328   0.03110  -0.11767  -0.01080  -0.06128
  92        2S         -0.06631   0.03017  -0.27566   0.03959  -0.18436
  93        3PX        -0.00195  -0.00063   0.00528  -0.00458  -0.00293
  94        3PY        -0.00016  -0.00552   0.00188  -0.00707  -0.00125
  95        3PZ         0.00361   0.00692  -0.00164   0.00948  -0.00295
                          31        32        33        34        35
                           V         V         V         V         V
     Eigenvalues --     0.10750   0.11559   0.12409   0.13481   0.14647
   1 1   Ti 1S          0.01370  -0.01788  -0.01165   0.00243   0.02016
   2        2S          0.02466  -0.03595  -0.02520   0.00681   0.03794
   3        3S          0.07754  -0.06176  -0.03706  -0.00603   0.11161
   4        4S         -0.79193  -0.03700   0.21520   0.24284  -1.27710
   5        5S          0.98635   0.42865  -0.47327  -0.33656   1.81464
   6        6S         -0.39779  -0.15437   0.17562   0.11989  -0.63108
   7        7PX         0.00502  -0.00217  -0.00176   0.00426   0.00005
   8        7PY        -0.00278  -0.00194   0.00116  -0.00212  -0.00328
   9        7PZ        -0.00819  -0.00110  -0.00054   0.00315  -0.01662
  10        8PX         0.03783  -0.01648  -0.01304   0.03228   0.00040
  11        8PY        -0.02094  -0.01470   0.00879  -0.01602  -0.02506
  12        8PZ        -0.06184  -0.00821  -0.00416   0.02394  -0.12581
  13        9PX         0.02415  -0.00762  -0.01335   0.03421  -0.00155
  14        9PY        -0.01325  -0.00632   0.01636  -0.01696  -0.02579
  15        9PZ        -0.03875  -0.01382  -0.00048   0.02654  -0.08286
  16       10PX        -0.16833  -0.06292  -0.08199  -0.16225  -0.49250
  17       10PY         0.09276  -0.00512   0.22683   0.06384  -0.03341
  18       10PZ         0.44541  -0.05574  -0.20995  -0.10398   0.89865
  19       11PX         0.15633   0.10446   0.20536   0.06012   0.26555
  20       11PY        -0.05346  -0.01975  -0.10555   0.03363  -0.00833
  21       11PZ        -0.38431   0.08035   0.14902   0.03291  -0.34574
  22       12D 0        0.13027   0.06981  -0.10333   0.01841   0.11366
  23       12D+1       -0.03881  -0.09769  -0.00912   0.04197  -0.08991
  24       12D-1       -0.06880  -0.02255   0.02225  -0.05429  -0.00916
  25       12D+2       -0.13560   0.07539   0.18944  -0.06750   0.18860
  26       12D-2       -0.10846  -0.06399  -0.12383  -0.03581   0.02793
  27       13D 0        0.10811   0.06801  -0.06801  -0.01373   0.00730
  28       13D+1       -0.01537  -0.11611  -0.05275   0.01062  -0.11243
  29       13D-1       -0.04864  -0.01049   0.08969  -0.03841  -0.10334
  30       13D+2       -0.04894   0.07368   0.14364  -0.14580   0.18165
  31       13D-2        0.04075  -0.01826  -0.02823  -0.02710  -0.03958
  32       14D 0       -0.46623  -0.69523   0.51118   0.12045   0.38122
  33       14D+1       -0.01386   0.71003   0.69206   0.29136   0.12867
  34       14D-1        0.40679  -0.23414  -0.14156   0.23926   0.26670
  35       14D+2        0.04740  -0.09837  -0.26032   1.10696  -0.13600
  36       14D-2       -0.70773   0.34459  -0.65215  -0.01130   0.52316
  37       15F 0        0.00535   0.00145  -0.00158  -0.00909   0.01000
  38       15F+1       -0.00377   0.00172  -0.00689  -0.00842  -0.00691
  39       15F-1       -0.00464   0.00435   0.00109  -0.00080  -0.00432
  40       15F+2        0.00501   0.00760   0.00941  -0.00914   0.00862
  41       15F-2        0.01433  -0.00522   0.01346   0.00077  -0.01110
  42       15F+3        0.00106   0.01557   0.00056   0.00438  -0.00235
  43       15F-3       -0.00497  -0.00290  -0.00972   0.00056   0.00806
  44 2   O  1S          0.01087   0.01031   0.01602  -0.01213  -0.01336
  45        2S         -0.03289  -0.02851  -0.05372   0.02430   0.01850
  46        2PX        -0.03253  -0.04895  -0.05983  -0.03118  -0.00516
  47        2PY        -0.01673   0.02750  -0.01215  -0.12418  -0.00914
  48        2PZ         0.04149   0.00463  -0.06078  -0.00576  -0.15886
  49        3S         -0.04241  -0.06755  -0.03874   0.12330   0.15084
  50        3PX        -0.04043  -0.06066  -0.09415  -0.00523  -0.00491
  51        3PY         0.00914   0.06719   0.03168  -0.18082   0.01982
  52        3PZ         0.02153  -0.01837  -0.08639   0.02731  -0.19707
  53        4D 0       -0.00368  -0.00608   0.00106  -0.00137   0.00084
  54        4D+1       -0.00151   0.00566  -0.00079   0.00058   0.00177
  55        4D-1        0.00073  -0.00206  -0.00388   0.00183   0.00398
  56        4D+2       -0.00228  -0.00252   0.00003   0.00835  -0.00752
  57        4D-2       -0.00838   0.00297  -0.00036   0.00146  -0.00072
[...]
  70        4D+2        0.00000   0.00000   0.00000   0.00000   0.00000
  71        4D-2        0.00000   0.00000   0.00000   0.00000   0.00000
  72 4   O  1S          0.00000   0.00000   0.00000   0.00000   0.00000
  73        2S          0.00000   0.00000   0.00000   0.00001  -0.00001
  74        2PX         0.00000   0.00000  -0.00001   0.00004   0.00000
  75        2PY         0.00000   0.00000   0.00000  -0.00001   0.00001
  76        2PZ         0.00000   0.00000   0.00000   0.00000   0.00001
  77        3S         -0.00001   0.00000  -0.00003   0.00050  -0.00030
  78        3PX         0.00000   0.00000  -0.00021   0.00096  -0.00001
  79        3PY         0.00000   0.00000  -0.00003  -0.00015   0.00004
  80        3PZ         0.00001   0.00000   0.00004  -0.00004   0.00012
  81        4D 0        0.00000   0.00000   0.00000   0.00000   0.00000
  82        4D+1        0.00000   0.00000   0.00000   0.00000   0.00000
  83        4D-1        0.00000   0.00000   0.00000   0.00000   0.00000
  84        4D+2        0.00000   0.00000   0.00000  -0.00001   0.00000
  85        4D-2        0.00000   0.00000   0.00000   0.00000   0.00000
  86 5   H  1S          0.00000   0.00000   0.00000  -0.00001   0.00000
  87        2S          0.00001   0.00000   0.00002  -0.00065   0.00012
  88        3PX         0.00000   0.00000   0.00000   0.00000   0.00000
  89        3PY         0.00000   0.00000   0.00000   0.00000   0.00000
  90        3PZ         0.00000   0.00000   0.00000   0.00000   0.00000
  91 6   H  1S          0.00000   0.00000   0.00000   0.00000   0.00000
  92        2S         -0.00010   0.00000   0.00009  -0.00028  -0.00078
  93        3PX         0.00000   0.00000   0.00000   0.00000   0.00000
  94        3PY         0.00000   0.00000   0.00000   0.00000   0.00000
  95        3PZ         0.00000   0.00000   0.00000   0.00000   0.00000
                          66        67        68        69        70
  66        3PZ         0.29771
  67        4D 0        0.00000   0.00077
  68        4D+1        0.00000   0.00000   0.00052
  69        4D-1        0.00000   0.00000   0.00000   0.00067
  70        4D+2        0.00000   0.00000   0.00000   0.00000   0.00100
  71        4D-2        0.00000   0.00000   0.00000   0.00000   0.00000
  72 4   O  1S          0.00000   0.00000   0.00000   0.00000   0.00000
  73        2S          0.00000   0.00000   0.00000   0.00000   0.00000
  74        2PX         0.00000   0.00000   0.00000   0.00000   0.00000
  75        2PY         0.00000   0.00000   0.00000   0.00000   0.00000
  76        2PZ         0.00000   0.00000   0.00000   0.00000   0.00000
  77        3S          0.00001   0.00000   0.00000   0.00000   0.00000
  78        3PX        -0.00005   0.00000   0.00000   0.00000   0.00000
  79        3PY        -0.00002   0.00000   0.00000   0.00000   0.00000
  80        3PZ        -0.00007   0.00000   0.00000   0.00000   0.00000
  81        4D 0        0.00000   0.00000   0.00000   0.00000   0.00000
  82        4D+1        0.00000   0.00000   0.00000   0.00000   0.00000
  83        4D-1        0.00000   0.00000   0.00000   0.00000   0.00000
  84        4D+2        0.00000   0.00000   0.00000   0.00000   0.00000
  85        4D-2        0.00000   0.00000   0.00000   0.00000   0.00000
  86 5   H  1S          0.00000   0.00000   0.00000   0.00000   0.00000
  87        2S          0.00000   0.00000   0.00000   0.00000   0.00000
  88        3PX         0.00000   0.00000   0.00000   0.00000   0.00000
  89        3PY         0.00000   0.00000   0.00000   0.00000   0.00000
  90        3PZ         0.00000   0.00000   0.00000   0.00000   0.00000
  91 6   H  1S          0.00000   0.00000   0.00000   0.00000   0.00000
  92        2S          0.00000   0.00000   0.00000   0.00000   0.00000
  93        3PX         0.00000   0.00000   0.00000   0.00000   0.00000
  94        3PY         0.00000   0.00000   0.00000   0.00000   0.00000
  95        3PZ         0.00000   0.00000   0.00000   0.00000   0.00000
                          71        72        73        74        75
  71        4D-2        0.00066
  72 4   O  1S          0.00000   2.08237
  73        2S          0.00000  -0.03875   0.49229
  74        2PX         0.00000   0.00000   0.00000   0.67370
  75        2PY         0.00000   0.00000   0.00000   0.00000   0.66070
  76        2PZ         0.00000   0.00000   0.00000   0.00000   0.00000
  77        3S          0.00000  -0.04637   0.41448   0.00000   0.00000
  78        3PX         0.00000   0.00000   0.00000   0.23549   0.00000
  79        3PY         0.00000   0.00000   0.00000   0.00000   0.21798
  80        3PZ         0.00000   0.00000   0.00000   0.00000   0.00000
  81        4D 0        0.00000   0.00000   0.00000   0.00000   0.00000
  82        4D+1        0.00000   0.00000   0.00000   0.00000   0.00000
  83        4D-1        0.00000   0.00000   0.00000   0.00000   0.00000
  84        4D+2        0.00000   0.00000   0.00000   0.00000   0.00000
  85        4D-2        0.00000   0.00000   0.00000   0.00000   0.00000
  86 5   H  1S          0.00000  -0.00154   0.02298   0.02336   0.03188
  87        2S          0.00000   0.00087  -0.00889   0.00623   0.00720
  88        3PX         0.00000  -0.00016   0.00136   0.00004   0.00227
  89        3PY         0.00000  -0.00025   0.00230   0.00228  -0.00032
  90        3PZ         0.00000  -0.00031   0.00285   0.00217   0.00294
  91 6   H  1S          0.00000  -0.00024   0.00514   0.00628   0.02005
  92        2S          0.00000   0.00119  -0.01135  -0.00294   0.01178
  93        3PX         0.00000  -0.00003   0.00080  -0.00005   0.00192
  94        3PY         0.00000  -0.00005   0.00131   0.00170   0.00132
  95        3PZ         0.00000  -0.00003   0.00073   0.00044   0.00162
                          76        77        78        79        80
  76        2PZ         0.68285
  77        3S          0.00000   0.63549
  78        3PX         0.00000   0.00000   0.33434
  79        3PY         0.00000   0.00000   0.00000   0.29072
  80        3PZ         0.23215   0.00000   0.00000   0.00000   0.31739
  81        4D 0        0.00000   0.00000   0.00000   0.00000   0.00000
  82        4D+1        0.00000   0.00000   0.00000   0.00000   0.00000
  83        4D-1        0.00000   0.00000   0.00000   0.00000   0.00000
  84        4D+2        0.00000   0.00000   0.00000   0.00000   0.00000
  85        4D-2        0.00000   0.00000   0.00000   0.00000   0.00000
  86 5   H  1S          0.03378   0.01706   0.02406   0.03585   0.03981
  87        2S          0.00984  -0.04036   0.01148   0.01315   0.01949
  88        3PX         0.00246   0.00094   0.00175   0.00106   0.00124
  89        3PY         0.00316   0.00152   0.00106   0.00089   0.00148
  90        3PZ        -0.00032   0.00204   0.00092   0.00133   0.00065
  91 6   H  1S          0.00887   0.00954   0.01145   0.03633   0.01857
  92        2S          0.00457  -0.03495  -0.00904   0.02477   0.00998
  93        3PX         0.00070   0.00134   0.00033   0.00194   0.00068
  94        3PY         0.00198   0.00201   0.00164   0.00026   0.00191
  95        3PZ        -0.00004   0.00124   0.00035   0.00138   0.00011
                          81        82        83        84        85
  81        4D 0        0.00095
  82        4D+1        0.00000   0.00093
  83        4D-1        0.00000   0.00000   0.00085
  84        4D+2        0.00000   0.00000   0.00000   0.00030
  85        4D-2        0.00000   0.00000   0.00000   0.00000   0.00041
  86 5   H  1S          0.00018   0.00079   0.00211   0.00010   0.00023
  87        2S          0.00002   0.00006   0.00019   0.00001   0.00001
  88        3PX         0.00003   0.00002   0.00012  -0.00005   0.00001
  89        3PY         0.00011   0.00007   0.00000  -0.00003   0.00001
  90        3PZ         0.00006   0.00002   0.00002   0.00001   0.00002
  91 6   H  1S         -0.00010   0.00072   0.00130  -0.00014   0.00086
  92        2S         -0.00004   0.00005   0.00022   0.00003   0.00016
  93        3PX         0.00001   0.00000   0.00005  -0.00001   0.00000
  94        3PY         0.00001   0.00012   0.00006   0.00002   0.00000
  95        3PZ         0.00004   0.00000   0.00000  -0.00002   0.00003
                          86        87        88        89        90
  86 5   H  1S          0.20149
  87        2S          0.05534   0.04624
  88        3PX         0.00000   0.00000   0.00100
  89        3PY         0.00000   0.00000   0.00000   0.00113
  90        3PZ         0.00000   0.00000   0.00000   0.00000   0.00111
  91 6   H  1S         -0.00051  -0.00206   0.00001   0.00005   0.00000
  92        2S         -0.00152   0.00134  -0.00015   0.00020  -0.00001
  93        3PX         0.00001  -0.00005   0.00000   0.00001   0.00000
  94        3PY        -0.00001  -0.00013   0.00001   0.00001   0.00000
  95        3PZ         0.00000   0.00001   0.00000   0.00000   0.00000
                          91        92        93        94        95
  91 6   H  1S          0.14662
  92        2S          0.05045   0.07432
  93        3PX         0.00000   0.00000   0.00190
  94        3PY         0.00000   0.00000   0.00000   0.00144
  95        3PZ         0.00000   0.00000   0.00000   0.00000   0.00080
     Gross orbital populations:
                           1
   1 1   Ti 1S         -0.30324
   2        2S          1.31931
   3        3S          0.99032
   4        4S          0.13736
   5        5S          0.00913
   6        6S         -0.00321
   7        7PX        -0.07314
   8        7PY        -0.07364
   9        7PZ        -0.07208
  10        8PX         1.38643
  11        8PY         1.39184
  12        8PZ         1.37137
  13        9PX         0.69838
  14        9PY         0.69182
  15        9PZ         0.70335
  16       10PX         0.09133
  17       10PY         0.08494
  18       10PZ         0.06892
  19       11PX         0.01542
  20       11PY         0.01483
  21       11PZ         0.00779
  22       12D 0        0.26635
  23       12D+1        0.21821
  24       12D-1        0.47105
  25       12D+2        0.37340
  26       12D-2        0.35512
  27       13D 0        0.15331
  28       13D+1        0.09392
  29       13D-1        0.11187
  30       13D+2        0.15881
  31       13D-2        0.12242
  32       14D 0        0.02543
  33       14D+1        0.02309
  34       14D-1        0.03118
  35       14D+2        0.03153
  36       14D-2        0.02620
  37       15F 0        0.00563
  38       15F+1        0.00518
  39       15F-1        0.01367
  40       15F+2        0.01068
  41       15F-2        0.01130
  42       15F+3        0.01438
  43       15F-3        0.01216
  44 2   O  1S          1.99744
  45        2S          0.91857
  46        2PX         0.90800
  47        2PY         0.92329
  48        2PZ         0.98433
  49        3S          1.03574
  50        3PX         0.62216
  51        3PY         0.57454
  52        3PZ         0.65354
  53        4D 0        0.00376
  54        4D+1        0.00185
  55        4D-1        0.00331
  56        4D+2        0.00319
  57        4D-2        0.00380
  58 3   O  1S          1.99747
  59        2S          0.93517
  60        2PX         0.90934
  61        2PY         0.92623
  62        2PZ         0.95433
  63        3S          1.02523
  64        3PX         0.57090
  65        3PY         0.53913
  66        3PZ         0.60200
  67        4D 0        0.00309
  68        4D+1        0.00221
  69        4D-1        0.00304
  70        4D+2        0.00413
  71        4D-2        0.00316
  72 4   O  1S          1.99695
  73        2S          0.88942
  74        2PX         0.97374
  75        2PY         0.96058
  76        2PZ         0.98792
  77        3S          0.96493
  78        3PX         0.64924
  79        3PY         0.61505
  80        3PZ         0.65924
  81        4D 0        0.00159
  82        4D+1        0.00340
  83        4D-1        0.00492
  84        4D+2        0.00081
  85        4D-2        0.00273
  86 5   H  1S          0.48102
  87        2S          0.10931
  88        3PX         0.01238
  89        3PY         0.01357
  90        3PZ         0.01356
  91 6   H  1S          0.38009
  92        2S          0.12993
  93        3PX         0.02208
  94        3PY         0.01721
  95        3PZ         0.00923
          Condensed to atoms (all electrons):
 Mulliken atomic charges:
              1
     1  Ti   1.007864
     2  O   -0.633529
     3  O   -0.475430
     4  O   -0.710515
     5  H    0.370158
     6  H    0.441452
 Sum of Mulliken atomic charges =   0.00000
 Mulliken charges with hydrogens summed into heavy atoms:
              1
     1  Ti   1.007864
     2  O   -0.633529
     3  O   -0.475430
     4  O    0.101095
 Sum of Mulliken charges with hydrogens summed into heavy atoms =   0.00000
 Electronic spatial extent (au):  <R**2>=            349.9012
 Charge=              0.0000 electrons
 Dipole moment (field-independent basis, Debye):
    X=             -2.0579    Y=              0.5944    Z=             -4.0863  Tot=              4.6137
 Orbital energies and kinetic energies (alpha):
                                 1                 2
   1         O               -19.180076         29.120124
   2         O               -19.110399         29.125910
   3         O               -19.105660         29.125480
   4         O                -2.483568          1.488788
   5         O                -1.530169          2.324602
   6         O                -1.523606          2.395170
   7         O                -1.517088          2.414494
   8         O                -1.037536          2.626984
   9         O                -0.888417          2.935901
  10         O                -0.858189          3.149557
  11         O                -0.570464          1.852124
  12         O                -0.447853          2.021307
  13         O                -0.384173          2.250629
  14         O                -0.349050          2.360607
  15         O                -0.338634          2.737679
  16         O                -0.322301          2.297458
  17         O                -0.308222          2.409914
  18         O                -0.306444          2.423941
  19         O                -0.272827          2.390133
  20         V                -0.095725          1.815312
  21         V                -0.070637          2.844220
  22         V                -0.058049          3.105710
  23         V                -0.013443          2.809265
  24         V                 0.002183          1.354741
  25         V                 0.013500          0.667377
  26         V                 0.017975          2.280791
  27         V                 0.034022          0.711339
  28         V                 0.037064          1.018847
  29         V                 0.052213          1.894158
  30         V                 0.099252          0.772217
  31         V                 0.108373          0.462959
  32         V                 0.120757          0.683264
  33         V                 0.129833          0.493996
  34         V                 0.139204          0.865357
  35         V                 0.145951          0.870525
  36         V                 0.155693          0.973357
  37         V                 0.197565          1.640090
  38         V                 0.223359          1.633777
  39         V                 0.241271          1.509629
  40         V                 0.274507          1.291252
  41         V                 0.504659          2.346881
  42         V                 0.518169          2.199503
  43         V                 0.521514          2.410339
  44         V                 0.563406          2.360235
  45         V                 0.582273          2.259188
  46         V                 0.746004          2.281035
  47         V                 0.848303          2.577212
  48         V                 0.904102          3.050616
  49         V                 0.946931          3.311843
  50         V                 0.998619          3.153983
  51         V                 1.018192          3.356730
  52         V                 1.033852          3.284241
  53         V                 1.070465          3.373909
  54         V                 1.123917          3.399031
  55         V                 1.137279          2.957910
  56         V                 1.172438          3.133330
  57         V                 1.186539          3.488310
  58         V                 1.237211          3.065350
  59         V                 1.274050          2.851081
  60         V                 1.302404          2.483281
  61         V                 1.305708          2.876653
  62         V                 1.322057          2.591526
  63         V                 1.330740          2.539999
  64         V                 1.373012          2.703968
  65         V                 1.455884          3.335442
  66         V                 1.498013          2.939468
  67         V                 1.563474          3.070319
  68         V                 1.621614          3.519456
  69         V                 1.691187          3.127353
  70         V                 1.724859          3.507515
  71         V                 1.778352          3.112170
  72         V                 1.815014          3.046336
  73         V                 1.862905          3.142140
  74         V                 1.913316          3.681576
  75         V                 1.937169          3.408281
  76         V                 1.939228          3.168797
  77         V                 2.162383          3.496067
  78         V                 2.224670          3.658974
  79         V                 2.230362          3.527948
  80         V                 2.304963          3.473938
  81         V                 2.349337          3.629266
  82         V                 2.388028          3.637021
  83         V                 2.429597          3.760979
  84         V                 2.480112          3.701779
  85         V                 2.681297          4.037483
  86         V                 2.716160          4.398105
  87         V                 2.777446          3.993138
  88         V                 2.876758          4.659220
  89         V                 3.100836          4.579411
  90         V                 3.387198          5.156519
  91         V                 3.580064          5.095900
  92         V                24.346842         22.569570
  93         V                24.491780         22.685059
  94         V                24.716950         22.888948
  95         V                35.557793         11.843884
 Total kinetic energy from orbitals= 2.509016055386D+02

 Test job not archived.
 1\1\GINC-TITAN10\FTS\RB3PW91\GenECP\H2O3Ti1\OHNISHI\26-Oct-2016\0\\#T 
 B3PW91/GenECP SCFCon=7 SCFCyc=250 GFInput GFOldPrint Opt=(MaxCyc=60,Ca
 lcFC,TS,NoEigenTest) Integral=(Grid=UltraFine) NoSym Pop=Regular Pseud
 o=Read IOp(1/33=0,2/11=1,3/27=8,6/7=3)\\TiO2 1 TS2-3\\0,1\Ti,0.5685405
 076,0.2336019681,-0.4175040051\O,0.3349188052,-1.1593709294,0.54443769
 05\O,1.4383967478,1.3956340883,0.3075337384\O,-1.4579218172,0.16519819
 85,-0.2503831891\H,-1.9517618326,0.7385801574,0.3467921718\H,-0.907727
 1007,-0.6995355428,0.3137160535\\Version=AM64L-G09RevC.01\HF=-285.2132
 836\RMSD=3.484e-08\RMSF=3.556e-05\Dipole=-0.809645,0.2338404,-1.607689
 7\Quadrupole=0.5642184,-4.0633712,3.4991528,-3.8850309,-5.819147,0.368
 3684\PG=C01 [X(H2O3Ti1)]\\@


 EVERYBODY NEEDS BEAUTY AS WELL AS BREAD, PLACES TO PLAY IN AND PRAY IN,
 WHERE NATURE MAY HEAL AND CHEER AND GIVE STRENGTH TO BODY AND SOUL ALIKE.

                                    -- JOHN MUIR
 Job cpu time:  0 days  0 hours  2 minutes 56.3 seconds.
 File lengths (MBytes):  RWF=     11 Int=      0 D2E=      0 Chk=      2 Scr=      1
 Normal termination of Gaussian 09 at Wed Oct 26 17:05:16 2016.
real 184.45
user 159.71
sys 16.67
