 Running on titan11
 Entering Gaussian System, Link 0=g09
 Initial command:
 /opt/qcapps/g09/l1.exe /work/ohnishi/1477470652/Gau-23984.inp -scrdir=/work/ohnishi/1477470652/
 Entering Link 1 = /opt/qcapps/g09/l1.exe PID=     23985.
  
 Copyright (c) 1988,1990,1992,1993,1995,1998,2003,2009,2011,
            Gaussian, Inc.  All Rights Reserved.
  
 This is part of the Gaussian(R) 09 program.  It is based on
 the Gaussian(R) 03 system (copyright 2003, Gaussian, Inc.),
 the Gaussian(R) 98 system (copyright 1998, Gaussian, Inc.),
 the Gaussian(R) 94 system (copyright 1995, Gaussian, Inc.),
 the Gaussian 92(TM) system (copyright 1992, Gaussian, Inc.),
 the Gaussian 90(TM) system (copyright 1990, Gaussian, Inc.),
 the Gaussian 88(TM) system (copyright 1988, Gaussian, Inc.),
 the Gaussian 86(TM) system (copyright 1986, Carnegie Mellon
 University), and the Gaussian 82(TM) system (copyright 1983,
 Carnegie Mellon University). Gaussian is a federally registered
 trademark of Gaussian, Inc.
  
 This software contains proprietary and confidential information,
 including trade secrets, belonging to Gaussian, Inc.
  
 This software is provided under written license and may be
 used, copied, transmitted, or stored only in accord with that
 written license.
  
 The following legend is applicable only to US Government
 contracts under FAR:
  
                    RESTRICTED RIGHTS LEGEND
  
 Use, reproduction and disclosure by the US Government is
 subject to restrictions as set forth in subparagraphs (a)
 and (c) of the Commercial Computer Software - Restricted
 Rights clause in FAR 52.227-19.
  
 Gaussian, Inc.
 340 Quinnipiac St., Bldg. 40, Wallingford CT 06492
  
  
 ---------------------------------------------------------------
 Warning -- This program may not be used in any manner that
 competes with the business of Gaussian, Inc. or will provide
 assistance to any competitor of Gaussian, Inc.  The licensee
 of this program is prohibited from giving any competitor of
 Gaussian, Inc. access to this program.  By using this program,
 the user acknowledges that Gaussian, Inc. is engaged in the
 business of creating and licensing software in the field of
 computational chemistry and represents and warrants to the
 licensee that it is not a competitor of Gaussian, Inc. and that
 it will not use this program in any manner prohibited above.
 ---------------------------------------------------------------
  

 Cite this work as:
 Gaussian 09, Revision C.01,
 M. J. Frisch, G. W. Trucks, H. B. Schlegel, G. E. Scuseria, 
 M. A. Robb, J. R. Cheeseman, G. Scalmani, V. Barone, B. Mennucci, 
 G. A. Petersson, H. Nakatsuji, M. Caricato, X. Li, H. P. Hratchian, 
 A. F. Izmaylov, J. Bloino, G. Zheng, J. L. Sonnenberg, M. Hada, 
 M. Ehara, K. Toyota, R. Fukuda, J. Hasegawa, M. Ishida, T. Nakajima, 
 Y. Honda, O. Kitao, H. Nakai, T. Vreven, J. A. Montgomery, Jr., 
 J. E. Peralta, F. Ogliaro, M. Bearpark, J. J. Heyd, E. Brothers, 
 K. N. Kudin, V. N. Staroverov, T. Keith, R. Kobayashi, J. Normand, 
 K. Raghavachari, A. Rendell, J. C. Burant, S. S. Iyengar, J. Tomasi, 
 M. Cossi, N. Rega, J. M. Millam, M. Klene, J. E. Knox, J. B. Cross, 
 V. Bakken, C. Adamo, J. Jaramillo, R. Gomperts, R. E. Stratmann, 
 O. Yazyev, A. J. Austin, R. Cammi, C. Pomelli, J. W. Ochterski, 
 R. L. Martin, K. Morokuma, V. G. Zakrzewski, G. A. Voth, 
 P. Salvador, J. J. Dannenberg, S. Dapprich, A. D. Daniels, 
 O. Farkas, J. B. Foresman, J. V. Ortiz, J. Cioslowski, 
 and D. J. Fox, Gaussian, Inc., Wallingford CT, 2010.
 
 ******************************************
 Gaussian 09:  AM64L-G09RevC.01 23-Sep-2011
                26-Oct-2016 
 ******************************************
 %NprocShared=8
 Will use up to    8 processors via shared memory.
 %Mem=25712MB
 ----------------------------------------------------------------------
 #T B3PW91/GenECP SCFCon=7 SCFCyc=250 GFInput GFOldPrint Opt=(MaxCyc=60
 ,CalcFC) NoSym Integral=(Grid=UltraFine) Pop=Regular Pseudo=Read IOp(1
 /33=0,2/11=1,3/27=8,6/7=3)
 ----------------------------------------------------------------------
 --------
 TiO2 1-4
 --------
 Charge =  0 Multiplicity = 1
 Symbolic Z-Matrix:
 Ti                    0.00124   0.04971  -0.00026 
 O                    -0.15336   1.65374   0.00025 
 O                     1.71879  -0.58123   0.0002 
 H                     2.06551  -1.47826   0.00038 
 O                    -1.52208  -0.9428    0.00015 
 H                    -2.43968  -0.65296   0.00054 
 O                    -0.29521  -0.37516   2.06578 
 H                     0.66479  -0.37516   2.06578 
 H                    -0.61566   0.52978   2.06578 
 

 GradGradGradGradGradGradGradGradGradGradGradGradGradGradGradGradGradGrad
 Initialization pass.
                           ----------------------------
                           !    Initial Parameters    !
                           ! (Angstroms and Degrees)  !
 --------------------------                            --------------------------
 ! Name  Definition              Value          Derivative Info.                !
 --------------------------------------------------------------------------------
 ! R1    R(1,2)                  1.6115         calculate D2E/DX2 analytically  !
 ! R2    R(1,3)                  1.8298         calculate D2E/DX2 analytically  !
 ! R3    R(1,5)                  1.8181         calculate D2E/DX2 analytically  !
 ! R4    R(1,7)                  2.13           calculate D2E/DX2 analytically  !
 ! R5    R(3,4)                  0.9617         calculate D2E/DX2 analytically  !
 ! R6    R(5,6)                  0.9623         calculate D2E/DX2 analytically  !
 ! R7    R(7,8)                  0.96           calculate D2E/DX2 analytically  !
 ! R8    R(7,9)                  0.96           calculate D2E/DX2 analytically  !
 ! A1    A(2,1,3)              115.6762         calculate D2E/DX2 analytically  !
 ! A2    A(2,1,5)              117.5806         calculate D2E/DX2 analytically  !
 ! A3    A(2,1,7)              100.6547         calculate D2E/DX2 analytically  !
 ! A4    A(3,1,5)              126.7432         calculate D2E/DX2 analytically  !
 ! A5    A(3,1,7)               93.5329         calculate D2E/DX2 analytically  !
 ! A6    A(5,1,7)               76.9548         calculate D2E/DX2 analytically  !
 ! A7    A(1,3,4)              131.3031         calculate D2E/DX2 analytically  !
 ! A8    A(1,5,6)              129.3843         calculate D2E/DX2 analytically  !
 ! A9    A(1,7,8)               81.9997         calculate D2E/DX2 analytically  !
 ! A10   A(1,7,9)               81.8615         calculate D2E/DX2 analytically  !
 ! A11   A(8,7,9)              109.5            calculate D2E/DX2 analytically  !
 ! D1    D(2,1,3,4)            179.9712         calculate D2E/DX2 analytically  !
 ! D2    D(5,1,3,4)              0.0249         calculate D2E/DX2 analytically  !
 ! D3    D(7,1,3,4)             76.3667         calculate D2E/DX2 analytically  !
 ! D4    D(2,1,5,6)              0.0076         calculate D2E/DX2 analytically  !
 ! D5    D(3,1,5,6)            179.953          calculate D2E/DX2 analytically  !
 ! D6    D(7,1,5,6)             95.349          calculate D2E/DX2 analytically  !
 ! D7    D(2,1,7,8)            -97.1821         calculate D2E/DX2 analytically  !
 ! D8    D(2,1,7,9)             13.9559         calculate D2E/DX2 analytically  !
 ! D9    D(3,1,7,8)             19.7761         calculate D2E/DX2 analytically  !
 ! D10   D(3,1,7,9)            130.9141         calculate D2E/DX2 analytically  !
 ! D11   D(5,1,7,8)            146.7135         calculate D2E/DX2 analytically  !
 ! D12   D(5,1,7,9)           -102.1485         calculate D2E/DX2 analytically  !
 --------------------------------------------------------------------------------
 Number of steps in this run=     60 maximum allowed number of steps=    100.
 GradGradGradGradGradGradGradGradGradGradGradGradGradGradGradGradGradGrad

                          Input orientation:                          
 ---------------------------------------------------------------------
 Center     Atomic      Atomic             Coordinates (Angstroms)
 Number     Number       Type             X           Y           Z
 ---------------------------------------------------------------------
      1         22           0        0.001242    0.049708   -0.000259
      2          8           0       -0.153362    1.653741    0.000247
      3          8           0        1.718794   -0.581234    0.000197
      4          1           0        2.065508   -1.478259    0.000380
      5          8           0       -1.522077   -0.942801    0.000153
      6          1           0       -2.439679   -0.652960    0.000544
      7          8           0       -0.295209   -0.375157    2.065778
      8          1           0        0.664791   -0.375157    2.065778
      9          1           0       -0.615664    0.529779    2.065778
 ---------------------------------------------------------------------
                    Distance matrix (angstroms):
                    1          2          3          4          5
     1  Ti   0.000000
     2  O    1.611467   0.000000
     3  O    1.829774   2.915490   0.000000
     4  H    2.568244   3.838334   0.961699   0.000000
     5  O    1.818124   2.935202   3.260978   3.627324   0.000000
     6  H    2.540047   3.247786   4.159092   4.580156   0.962290
     7  O    2.130000   2.898786   2.892283   3.325009   2.468649
     8  H    2.211179   3.008690   2.328092   2.728500   3.061277
     9  H    2.208970   2.396545   3.309179   3.935323   2.693860
                    6          7          8          9
     6  H    0.000000
     7  O    2.990170   0.000000
     8  H    3.738997   0.960000   0.000000
     9  H    2.998515   0.960000   1.567952   0.000000
 Symmetry turned off by external request.
 Framework group  C1[X(H4O4Ti)]
 Deg. of freedom    21
 Rotational constants (GHZ):      3.8661490      3.2589120      2.8795169
 ======================================================================================================
                                       Pseudopotential Parameters
 ======================================================================================================
  Center     Atomic      Valence      Angular      Power
  Number     Number     Electrons     Momentum     of R      Exponent        Coefficient   SO-Coeffient
 ======================================================================================================
    1         22           12
                                      F and up 
                                                     2        1.0000000        0.00000000    0.00000000
                                      S - F
                                                     2       13.0100000      158.24159300    0.00000000
                                                     2        5.8620000       17.51182400    0.00000000
                                      P - F
                                                     2       12.4600000       95.23512700    0.00000000
                                                     2        5.2170000       10.04785600    0.00000000
                                      D - F
                                                     2       15.3500000      -17.56886100    0.00000000
                                                     2        4.9800000       -0.58725600    0.00000000
    2          8
                                   No pseudopotential on this center.
    3          8
                                   No pseudopotential on this center.
    4          1
                                   No pseudopotential on this center.
    5          8
                                   No pseudopotential on this center.
    6          1
                                   No pseudopotential on this center.
    7          8
                                   No pseudopotential on this center.
    8          1
                                   No pseudopotential on this center.
    9          1
                                   No pseudopotential on this center.
 ======================================================================================================
 AO basis set in the form of general basis input (Overlap normalization):
      1 0
 S   3 1.00       0.000000000000
      0.1078036500D+02  0.1783892477D+01
      0.9717013000D+01 -0.2000689535D+01
      0.4507755000D+01 -0.7563332022D+00
 S   1 1.00       0.000000000000
      0.1246708000D+01  0.1000000000D+01
 S   1 1.00       0.000000000000
      0.5087070000D+00  0.1000000000D+01
 S   1 1.00       0.000000000000
      0.7343800000D-01  0.1000000000D+01
 S   1 1.00       0.000000000000
      0.3004800000D-01  0.1000000000D+01
 S   1 1.00       0.000000000000
      0.1000000000D-01  0.1000000000D+01
 P   2 1.00       0.000000000000
      0.1756638100D+02  0.8860101480D-01
      0.7705844000D+01 -0.1070746179D+01
 P   2 1.00       0.000000000000
      0.3329138000D+01  0.2001088977D+00
      0.1308104000D+01  0.8379855716D+00
 P   1 1.00       0.000000000000
      0.4544820000D+00  0.1000000000D+01
 P   1 1.00       0.000000000000
      0.7177200000D-01  0.1000000000D+01
 P   1 1.00       0.000000000000
      0.2378400000D-01  0.1000000000D+01
 D   4 1.00       0.000000000000
      0.1951919400D+02  0.3581400317D-01
      0.5864613000D+01  0.1723730152D+00
      0.1928038000D+01  0.4251360376D+00
      0.6065630000D+00  0.6025950533D+00
 D   1 1.00       0.000000000000
      0.1639610000D+00  0.1000000000D+01
 D   1 1.00       0.000000000000
      0.5000000000D-01  0.1000000000D+01
 F   1 1.00       0.000000000000
      0.5000000000D+00  0.1000000000D+01
 ****
      2 0
 S   6 1.00       0.000000000000
      0.5484671660D+04  0.1831074430D-02
      0.8252349460D+03  0.1395017220D-01
      0.1880469580D+03  0.6844507810D-01
      0.5296450000D+02  0.2327143360D+00
      0.1689757040D+02  0.4701928980D+00
      0.5799635340D+01  0.3585208530D+00
 SP   3 1.00       0.000000000000
      0.1553961625D+02 -0.1107775495D+00  0.7087426823D-01
      0.3599933586D+01 -0.1480262627D+00  0.3397528391D+00
      0.1013761750D+01  0.1130767015D+01  0.7271585773D+00
 SP   1 1.00       0.000000000000
      0.2700058226D+00  0.1000000000D+01  0.1000000000D+01
 D   1 1.00       0.000000000000
      0.8000000000D+00  0.1000000000D+01
 ****
      3 0
 S   6 1.00       0.000000000000
      0.5484671660D+04  0.1831074430D-02
      0.8252349460D+03  0.1395017220D-01
      0.1880469580D+03  0.6844507810D-01
      0.5296450000D+02  0.2327143360D+00
      0.1689757040D+02  0.4701928980D+00
      0.5799635340D+01  0.3585208530D+00
 SP   3 1.00       0.000000000000
      0.1553961625D+02 -0.1107775495D+00  0.7087426823D-01
      0.3599933586D+01 -0.1480262627D+00  0.3397528391D+00
      0.1013761750D+01  0.1130767015D+01  0.7271585773D+00
 SP   1 1.00       0.000000000000
      0.2700058226D+00  0.1000000000D+01  0.1000000000D+01
 D   1 1.00       0.000000000000
      0.8000000000D+00  0.1000000000D+01
 ****
      4 0
 S   3 1.00       0.000000000000
      0.1873113696D+02  0.3349460434D-01
      0.2825394365D+01  0.2347269535D+00
      0.6401216923D+00  0.8137573261D+00
 S   1 1.00       0.000000000000
      0.1612777588D+00  0.1000000000D+01
 P   1 1.00       0.000000000000
      0.1100000000D+01  0.1000000000D+01
 ****
      5 0
 S   6 1.00       0.000000000000
      0.5484671660D+04  0.1831074430D-02
      0.8252349460D+03  0.1395017220D-01
      0.1880469580D+03  0.6844507810D-01
      0.5296450000D+02  0.2327143360D+00
      0.1689757040D+02  0.4701928980D+00
      0.5799635340D+01  0.3585208530D+00
 SP   3 1.00       0.000000000000
      0.1553961625D+02 -0.1107775495D+00  0.7087426823D-01
      0.3599933586D+01 -0.1480262627D+00  0.3397528391D+00
      0.1013761750D+01  0.1130767015D+01  0.7271585773D+00
 SP   1 1.00       0.000000000000
      0.2700058226D+00  0.1000000000D+01  0.1000000000D+01
 D   1 1.00       0.000000000000
      0.8000000000D+00  0.1000000000D+01
 ****
      6 0
 S   3 1.00       0.000000000000
      0.1873113696D+02  0.3349460434D-01
      0.2825394365D+01  0.2347269535D+00
      0.6401216923D+00  0.8137573261D+00
 S   1 1.00       0.000000000000
      0.1612777588D+00  0.1000000000D+01
 P   1 1.00       0.000000000000
      0.1100000000D+01  0.1000000000D+01
 ****
      7 0
 S   6 1.00       0.000000000000
      0.5484671660D+04  0.1831074430D-02
      0.8252349460D+03  0.1395017220D-01
      0.1880469580D+03  0.6844507810D-01
      0.5296450000D+02  0.2327143360D+00
      0.1689757040D+02  0.4701928980D+00
      0.5799635340D+01  0.3585208530D+00
 SP   3 1.00       0.000000000000
      0.1553961625D+02 -0.1107775495D+00  0.7087426823D-01
      0.3599933586D+01 -0.1480262627D+00  0.3397528391D+00
      0.1013761750D+01  0.1130767015D+01  0.7271585773D+00
 SP   1 1.00       0.000000000000
      0.2700058226D+00  0.1000000000D+01  0.1000000000D+01
 D   1 1.00       0.000000000000
      0.8000000000D+00  0.1000000000D+01
 ****
      8 0
 S   3 1.00       0.000000000000
      0.1873113696D+02  0.3349460434D-01
      0.2825394365D+01  0.2347269535D+00
      0.6401216923D+00  0.8137573261D+00
 S   1 1.00       0.000000000000
      0.1612777588D+00  0.1000000000D+01
 P   1 1.00       0.000000000000
      0.1100000000D+01  0.1000000000D+01
 ****
      9 0
 S   3 1.00       0.000000000000
      0.1873113696D+02  0.3349460434D-01
      0.2825394365D+01  0.2347269535D+00
      0.6401216923D+00  0.8137573261D+00
 S   1 1.00       0.000000000000
      0.1612777588D+00  0.1000000000D+01
 P   1 1.00       0.000000000000
      0.1100000000D+01  0.1000000000D+01
 ****

 ***********************************************************************************************************************************
 *             ATOMIC CENTER             *        ATOMIC ORBITAL       *                     GAUSSIAN FUNCTIONS                    *
 ***********************************************************************************************************************************
 *                                       * FUNCTION    SHELL    SCALE  *                                                           *
 *    ATOM   X-COORD  Y-COORD  Z-COORD   *  NUMBER     TYPE     FACTOR *  EXPONENT    S-COEF      P-COEF      D-COEF      F-COEF   *
 ***********************************************************************************************************************************
 *     Ti     0.00235  0.09393 -0.00049                                                                                            *
+                                                1   S           1.00                                                               
+                                                                      0.107804D+020.756404D+010.000000D+000.000000D+000.000000D+00 
 *                                                                     0.971701D+01-.784765D+010.000000D+000.000000D+000.000000D+00*
 *                                                                     0.450776D+01-.166761D+010.000000D+000.000000D+000.000000D+00*
 *                                               2   S           1.00                                                              *
+                                                                      0.124671D+010.840879D+000.000000D+000.000000D+000.000000D+00 
 *                                               3   S           1.00                                                              *
+                                                                      0.508707D+000.429300D+000.000000D+000.000000D+000.000000D+00 
 *                                               4   S           1.00                                                              *
+                                                                      0.734380D-010.100543D+000.000000D+000.000000D+000.000000D+00 
 *                                               5   S           1.00                                                              *
+                                                                      0.300480D-010.514365D-010.000000D+000.000000D+000.000000D+00 
 *                                               6   S           1.00                                                              *
+                                                                      0.100000D-010.225377D-010.000000D+000.000000D+000.000000D+00 
 *                                           7-  9   P           1.00                                                              *
+                                                                      0.175664D+020.000000D+000.454184D+010.000000D+000.000000D+00 
 *                                                                     0.770584D+010.000000D+00-.195953D+020.000000D+000.000000D+00*
 *                                          10- 12   P           1.00                                                              *
+                                                                      0.332914D+010.000000D+000.128269D+010.000000D+000.000000D+00 
 *                                                                     0.130810D+010.000000D+000.167101D+010.000000D+000.000000D+00*
 *                                          13- 15   P           1.00                                                              *
+                                                                      0.454482D+000.000000D+000.531907D+000.000000D+000.000000D+00 
 *                                          16- 18   P           1.00                                                              *
+                                                                      0.717720D-010.000000D+000.529522D-010.000000D+000.000000D+00 
 *                                          19- 21   P           1.00                                                              *
+                                                                      0.237840D-010.000000D+000.133136D-010.000000D+000.000000D+00 
 *                                          22- 26   D           1.00                                                              *
+                                                                      0.195192D+020.000000D+000.000000D+000.106849D+020.000000D+00 
 *                                                                     0.586461D+010.000000D+000.000000D+000.627043D+010.000000D+00*
 *                                                                     0.192804D+010.000000D+000.000000D+000.220744D+010.000000D+00*
 *                                                                     0.606563D+000.000000D+000.000000D+000.413493D+000.000000D+00*
 *                                          27- 31   D           1.00                                                              *
+                                                                      0.163961D+000.000000D+000.000000D+000.695353D-010.000000D+00 
 *                                          32- 36   D           1.00                                                              *
+                                                                      0.500000D-010.000000D+000.000000D+000.870176D-020.000000D+00 
 *                                          31- 43   F           1.00                                                              *
+                                                                      0.500000D+000.000000D+000.000000D+000.000000D+000.309483D+00 
 *---------------------------------------------------------------------------------------------------------------------------------*
 *     O     -0.28981  3.12512  0.00047                                                                                            *
+                                               44   S           1.00                                                               
+                                                                      0.548467D+040.831724D+000.000000D+000.000000D+000.000000D+00 
 *                                                                     0.825235D+030.153082D+010.000000D+000.000000D+000.000000D+00*
 *                                                                     0.188047D+030.247715D+010.000000D+000.000000D+000.000000D+00*
 *                                                                     0.529645D+020.325628D+010.000000D+000.000000D+000.000000D+00*
 *                                                                     0.168976D+020.279289D+010.000000D+000.000000D+000.000000D+00*
 *                                                                     0.579964D+010.954938D+000.000000D+000.000000D+000.000000D+00*
 *                                          45- 48   SP          1.00                                                              *
+                                                                      0.155396D+02-.617934D+000.311694D+010.000000D+000.000000D+00 
 *                                                                     0.359993D+01-.275721D+000.240144D+010.000000D+000.000000D+00*
 *                                                                     0.101376D+010.814208D+000.105436D+010.000000D+000.000000D+00*
 *                                          49- 52   SP          1.00                                                              *
+                                                                      0.270006D+000.266956D+000.277432D+000.000000D+000.000000D+00 
 *                                          53- 57   D           1.00                                                              *
+                                                                      0.800000D+000.000000D+000.000000D+000.111382D+010.000000D+00 
 *---------------------------------------------------------------------------------------------------------------------------------*
 *     O      3.24805 -1.09837  0.00037                                                                                            *
+                                               58   S           1.00                                                               
+                                                                      0.548467D+040.831724D+000.000000D+000.000000D+000.000000D+00 
 *                                                                     0.825235D+030.153082D+010.000000D+000.000000D+000.000000D+00*
 *                                                                     0.188047D+030.247715D+010.000000D+000.000000D+000.000000D+00*
 *                                                                     0.529645D+020.325628D+010.000000D+000.000000D+000.000000D+00*
 *                                                                     0.168976D+020.279289D+010.000000D+000.000000D+000.000000D+00*
 *                                                                     0.579964D+010.954938D+000.000000D+000.000000D+000.000000D+00*
 *                                          59- 62   SP          1.00                                                              *
+                                                                      0.155396D+02-.617934D+000.311694D+010.000000D+000.000000D+00 
 *                                                                     0.359993D+01-.275721D+000.240144D+010.000000D+000.000000D+00*
 *                                                                     0.101376D+010.814208D+000.105436D+010.000000D+000.000000D+00*
 *                                          63- 66   SP          1.00                                                              *
+                                                                      0.270006D+000.266956D+000.277432D+000.000000D+000.000000D+00 
 *                                          67- 71   D           1.00                                                              *
+                                                                      0.800000D+000.000000D+000.000000D+000.111382D+010.000000D+00 
 *---------------------------------------------------------------------------------------------------------------------------------*
 *     H      3.90324 -2.79350  0.00072                                                                                            *
+                                               72   S           1.00                                                               
+                                                                      0.187311D+020.214935D+000.000000D+000.000000D+000.000000D+00 
 *                                                                     0.282539D+010.364571D+000.000000D+000.000000D+000.000000D+00*
 *                                                                     0.640122D+000.415051D+000.000000D+000.000000D+000.000000D+00*
 *                                              73   S           1.00                                                              *
+                                                                      0.161278D+000.181381D+000.000000D+000.000000D+000.000000D+00 
 *                                          74- 76   P           1.00                                                              *
+                                                                      0.110000D+010.000000D+000.160576D+010.000000D+000.000000D+00 
 *---------------------------------------------------------------------------------------------------------------------------------*
 *     O     -2.87631 -1.78164  0.00029                                                                                            *
+                                               77   S           1.00                                                               
+                                                                      0.548467D+040.831724D+000.000000D+000.000000D+000.000000D+00 
 *                                                                     0.825235D+030.153082D+010.000000D+000.000000D+000.000000D+00*
 *                                                                     0.188047D+030.247715D+010.000000D+000.000000D+000.000000D+00*
 *                                                                     0.529645D+020.325628D+010.000000D+000.000000D+000.000000D+00*
 *                                                                     0.168976D+020.279289D+010.000000D+000.000000D+000.000000D+00*
 *                                                                     0.579964D+010.954938D+000.000000D+000.000000D+000.000000D+00*
 *                                          78- 81   SP          1.00                                                              *
+                                                                      0.155396D+02-.617934D+000.311694D+010.000000D+000.000000D+00 
 *                                                                     0.359993D+01-.275721D+000.240144D+010.000000D+000.000000D+00*
 *                                                                     0.101376D+010.814208D+000.105436D+010.000000D+000.000000D+00*
 *                                          82- 85   SP          1.00                                                              *
+                                                                      0.270006D+000.266956D+000.277432D+000.000000D+000.000000D+00 
 *                                          86- 90   D           1.00                                                              *
+                                                                      0.800000D+000.000000D+000.000000D+000.111382D+010.000000D+00 
 *---------------------------------------------------------------------------------------------------------------------------------*
 *     H     -4.61033 -1.23392  0.00103                                                                                            *
+                                               91   S           1.00                                                               
+                                                                      0.187311D+020.214935D+000.000000D+000.000000D+000.000000D+00 
 *                                                                     0.282539D+010.364571D+000.000000D+000.000000D+000.000000D+00*
 *                                                                     0.640122D+000.415051D+000.000000D+000.000000D+000.000000D+00*
 *                                              92   S           1.00                                                              *
+                                                                      0.161278D+000.181381D+000.000000D+000.000000D+000.000000D+00 
 *                                          93- 95   P           1.00                                                              *
+                                                                      0.110000D+010.000000D+000.160576D+010.000000D+000.000000D+00 
 *---------------------------------------------------------------------------------------------------------------------------------*
 *     O     -0.55786 -0.70894  3.90375                                                                                            *
+                                               96   S           1.00                                                               
+                                                                      0.548467D+040.831724D+000.000000D+000.000000D+000.000000D+00 
 *                                                                     0.825235D+030.153082D+010.000000D+000.000000D+000.000000D+00*
 *                                                                     0.188047D+030.247715D+010.000000D+000.000000D+000.000000D+00*
 *                                                                     0.529645D+020.325628D+010.000000D+000.000000D+000.000000D+00*
 *                                                                     0.168976D+020.279289D+010.000000D+000.000000D+000.000000D+00*
 *                                                                     0.579964D+010.954938D+000.000000D+000.000000D+000.000000D+00*
 *                                          97-100   SP          1.00                                                              *
+                                                                      0.155396D+02-.617934D+000.311694D+010.000000D+000.000000D+00 
 *                                                                     0.359993D+01-.275721D+000.240144D+010.000000D+000.000000D+00*
 *                                                                     0.101376D+010.814208D+000.105436D+010.000000D+000.000000D+00*
 *                                         101-104   SP          1.00                                                              *
+                                                                      0.270006D+000.266956D+000.277432D+000.000000D+000.000000D+00 
 *                                         105-109   D           1.00                                                              *
+                                                                      0.800000D+000.000000D+000.000000D+000.111382D+010.000000D+00 
 *---------------------------------------------------------------------------------------------------------------------------------*
 *     H      1.25627 -0.70894  3.90375                                                                                            *
+                                              110   S           1.00                                                               
+                                                                      0.187311D+020.214935D+000.000000D+000.000000D+000.000000D+00 
 *                                                                     0.282539D+010.364571D+000.000000D+000.000000D+000.000000D+00*
 *                                                                     0.640122D+000.415051D+000.000000D+000.000000D+000.000000D+00*
 *                                             111   S           1.00                                                              *
+                                                                      0.161278D+000.181381D+000.000000D+000.000000D+000.000000D+00 
 *                                         112-114   P           1.00                                                              *
+                                                                      0.110000D+010.000000D+000.160576D+010.000000D+000.000000D+00 
 *---------------------------------------------------------------------------------------------------------------------------------*
 *     H     -1.16344  1.00114  3.90375                                                                                            *
+                                              115   S           1.00                                                               
+                                                                      0.187311D+020.214935D+000.000000D+000.000000D+000.000000D+00 
 *                                                                     0.282539D+010.364571D+000.000000D+000.000000D+000.000000D+00*
 *                                                                     0.640122D+000.415051D+000.000000D+000.000000D+000.000000D+00*
 *                                             116   S           1.00                                                              *
+                                                                      0.161278D+000.181381D+000.000000D+000.000000D+000.000000D+00 
 *                                         117-119   P           1.00                                                              *
+                                                                      0.110000D+010.000000D+000.160576D+010.000000D+000.000000D+00 
 ***********************************************************************************************************************************
   119 basis functions,   215 primitive gaussians,   129 cartesian basis functions
    24 alpha electrons       24 beta electrons
       nuclear repulsion energy       227.6775559327 Hartrees.
 NAtoms=    9 NActive=    9 NUniq=    9 SFac= 1.00D+00 NAtFMM=   60 NAOKFM=F Big=F
   1 Symmetry operations used in ECPInt.
 ECPInt:  NShTT=     946 NPrTT=    3836 LenC2=     941 LenP2D=    3068.
 LDataN:  DoStor=T MaxTD1= 6 Len=  172
 Harris functional with IExCor=  408 diagonalized for initial guess.
 ExpMin= 1.00D-02 ExpMax= 5.48D+03 ExpMxC= 8.25D+02 IAcc=3 IRadAn=         5 AccDes= 0.00D+00
 HarFok:  IExCor=  408 AccDes= 0.00D+00 IRadAn=         5 IDoV= 1
 ScaDFX=  1.000000  1.000000  1.000000  1.000000
 FoFCou: FMM=F IPFlag=           0 FMFlag=      100000 FMFlg1=           0
         NFxFlg=           0 DoJE=T BraDBF=F KetDBF=T FulRan=T
         Omega=  0.000000  0.000000  1.000000  0.000000  0.000000 ICntrl=     500 IOpCl=  0
         NMat0=    1 NMatS0=    1 NMatT0=    0 NMatD0=    1 NMtDS0=    0 NMtDT0=    0
         I1Cent=           4 NGrid=           0.
 Symmetry not used in FoFCou.
 EnCoef did     5 forward-backward iterations
 EnCoef did   100 forward-backward iterations
 EnCoef did     3 forward-backward iterations
 Rare condition: small coef for last iteration:  0.000D+00
 SCF Done:  E(RB3PW91) =  -361.695693291     A.U. after   14 cycles
             Convg  =    0.6888D-07             -V/T =  2.1073
 NROrb=    119 NOA=    24 NOB=    24 NVA=    95 NVB=    95
   1 Symmetry operations used in ECPInt.
 ECPInt:  NShTT=     946 NPrTT=    3836 LenC2=     941 LenP2D=    3068.
 LDataN:  DoStor=T MaxTD1= 7 Len=  274
 Symmetrizing basis deriv contribution to polar:
 IMax=3 JMax=2 DiffMx= 0.00D+00
 Calling FoFCou, ICntrl=  3107 FMM=F I1Cent=   0 AccDes= 0.00D+00.
 End of G2Drv Frequency-dependent properties file   721 does not exist.
 End of G2Drv Frequency-dependent properties file   722 does not exist.
          IDoAtm=111111111
 End of Minotr Frequency-dependent properties file   721 does not exist.
 End of Minotr Frequency-dependent properties file   722 does not exist.

 **********************************************************************

            Population analysis using the SCF density.

 **********************************************************************

 Alpha  occ. eigenvalues --  -19.21997 -19.13394 -19.12211 -19.10510  -2.47596
 Alpha  occ. eigenvalues --   -1.52064  -1.51216  -1.51093  -1.10539  -0.97179
 Alpha  occ. eigenvalues --   -0.95676  -0.85802  -0.62546  -0.49076  -0.48336
 Alpha  occ. eigenvalues --   -0.45819  -0.42339  -0.35702  -0.33905  -0.33419
 Alpha  occ. eigenvalues --   -0.32248  -0.31143  -0.30709  -0.29303
 Alpha virt. eigenvalues --   -0.05916  -0.04365  -0.01967  -0.00753   0.00989
 Alpha virt. eigenvalues --    0.01366   0.03239   0.03363   0.04849   0.05002
 Alpha virt. eigenvalues --    0.09787   0.10311   0.12502   0.12931   0.13223
 Alpha virt. eigenvalues --    0.14468   0.16433   0.20129   0.20601   0.22908
 Alpha virt. eigenvalues --    0.25286   0.27984   0.31340   0.52080   0.52495
 Alpha virt. eigenvalues --    0.56399   0.57709   0.59145   0.80676   0.84035
 Alpha virt. eigenvalues --    0.87316   0.88805   0.90522   0.91853   0.96041
 Alpha virt. eigenvalues --    0.97651   0.98573   1.01282   1.06220   1.08194
 Alpha virt. eigenvalues --    1.10267   1.12746   1.18633   1.19284   1.21883
 Alpha virt. eigenvalues --    1.25463   1.25829   1.27576   1.33639   1.35108
 Alpha virt. eigenvalues --    1.37842   1.42543   1.46744   1.48741   1.54944
 Alpha virt. eigenvalues --    1.56862   1.59197   1.65187   1.68297   1.73250
 Alpha virt. eigenvalues --    1.74110   1.76394   1.83934   1.92193   1.94970
 Alpha virt. eigenvalues --    1.97210   2.04316   2.09530   2.13176   2.16844
 Alpha virt. eigenvalues --    2.20173   2.23078   2.25780   2.36378   2.39819
 Alpha virt. eigenvalues --    2.43143   2.45743   2.48430   2.61206   2.63628
 Alpha virt. eigenvalues --    2.67060   2.69143   2.72366   2.83620   2.87774
 Alpha virt. eigenvalues --    2.95017   3.01724   3.41067   3.48321   3.53302
 Alpha virt. eigenvalues --    3.54875  24.35883  24.66910  24.70419  35.61529
     Molecular Orbital Coefficients:
                           1         2         3         4         5
                           O         O         O         O         O
     Eigenvalues --   -19.21997 -19.13394 -19.12211 -19.10510  -2.47596
   1 1   Ti 1S         -0.00005  -0.00013  -0.00012  -0.00006   0.39585
   2        2S         -0.00011  -0.00068  -0.00062  -0.00061   0.71823
   3        3S         -0.00044   0.00038   0.00030   0.00099   0.51437
   4        4S          0.00296   0.00600   0.00632   0.00678   0.00735
   5        5S         -0.00083  -0.00204  -0.00204  -0.00231  -0.00309
   6        6S          0.00017   0.00044   0.00043   0.00050   0.00089
   7        7PX         0.00001  -0.00011   0.00009   0.00001  -0.00004
   8        7PY         0.00001   0.00004   0.00006  -0.00004   0.00169
   9        7PZ        -0.00014   0.00000   0.00001  -0.00001  -0.00005
  10        8PX         0.00003  -0.00057   0.00050   0.00004  -0.00041
  11        8PY         0.00003   0.00019   0.00030  -0.00028   0.01167
  12        8PZ        -0.00064  -0.00001   0.00005  -0.00003  -0.00024
  13        9PX         0.00001   0.00153  -0.00136  -0.00020   0.00086
  14        9PY         0.00007  -0.00043  -0.00080   0.00190   0.00163
  15        9PZ         0.00103   0.00000  -0.00013   0.00003  -0.00057
  16       10PX        -0.00136   0.00505  -0.00427  -0.00104   0.00016
  17       10PY        -0.00125  -0.00181  -0.00254   0.00533  -0.00018
  18       10PZ         0.00288   0.00043   0.00068   0.00070   0.00043
  19       11PX         0.00009  -0.00101   0.00091   0.00010  -0.00011
  20       11PY         0.00023   0.00044   0.00065  -0.00114   0.00018
  21       11PZ        -0.00075  -0.00007  -0.00006  -0.00010   0.00026
  22       12D 0        0.00008  -0.00021  -0.00024  -0.00015   0.00522
  23       12D+1       -0.00001  -0.00006   0.00005   0.00003   0.00016
  24       12D-1        0.00000   0.00002   0.00002  -0.00004   0.00054
  25       12D+2       -0.00004   0.00008   0.00004  -0.00013   0.00188
  26       12D-2       -0.00008  -0.00009   0.00014  -0.00001   0.00042
  27       13D 0        0.00185  -0.00111  -0.00120  -0.00079   0.00151
  28       13D+1       -0.00046   0.00030  -0.00025  -0.00023   0.00019
  29       13D-1       -0.00084  -0.00020  -0.00013   0.00026   0.00037
  30       13D+2       -0.00015   0.00203   0.00135  -0.00169  -0.00128
  31       13D-2        0.00061  -0.00199   0.00232  -0.00032  -0.00097
  32       14D 0        0.00018   0.00001   0.00019  -0.00002   0.00007
  33       14D+1       -0.00024   0.00031  -0.00024  -0.00020  -0.00014
  34       14D-1       -0.00029  -0.00016  -0.00001   0.00025  -0.00010
  35       14D+2        0.00015   0.00053   0.00001  -0.00081   0.00011
  36       14D-2        0.00045  -0.00047   0.00082  -0.00004   0.00015
  37       15F 0        0.00059   0.00005   0.00001   0.00004   0.00007
  38       15F+1       -0.00019  -0.00007   0.00005  -0.00005   0.00016
  39       15F-1       -0.00032   0.00002   0.00001   0.00039  -0.00029
  40       15F+2        0.00002   0.00003   0.00000  -0.00005   0.00009
  41       15F-2        0.00009  -0.00004   0.00004  -0.00001  -0.00017
  42       15F+3       -0.00001  -0.00009  -0.00010  -0.00015   0.00029
  43       15F-3       -0.00001  -0.00027  -0.00024   0.00048  -0.00089
  44 2   O  1S          0.00000   0.00019   0.00055   0.99514  -0.00646
  45        2S          0.00003   0.00011   0.00018   0.02886   0.01050
  46        2PX        -0.00001   0.00003   0.00000   0.00008   0.00113
  47        2PY        -0.00004  -0.00014  -0.00014  -0.00108  -0.01186
  48        2PZ         0.00007   0.00001   0.00002   0.00007   0.00002
  49        3S          0.00025   0.00008  -0.00007  -0.01622   0.00957
  50        3PX        -0.00011   0.00012  -0.00031  -0.00023   0.00077
  51        3PY         0.00029   0.00063   0.00054   0.00294  -0.00587
  52        3PZ        -0.00014   0.00003  -0.00005  -0.00028  -0.00005
  53        4D 0       -0.00006   0.00013   0.00016   0.00018  -0.00193
  54        4D+1        0.00005  -0.00002   0.00002   0.00000  -0.00001
  55        4D-1       -0.00006  -0.00003  -0.00001   0.00004  -0.00003
  56        4D+2        0.00010   0.00000  -0.00004   0.00033  -0.00316
  57        4D-2        0.00007  -0.00003   0.00008   0.00006  -0.00066
  58 3   O  1S          0.00002   0.99505  -0.00010  -0.00019  -0.00264
  59        2S          0.00005   0.02893   0.00000   0.00006   0.00412
  60        2PX        -0.00003  -0.00021  -0.00010  -0.00011  -0.00455
  61        2PY        -0.00001  -0.00143   0.00006   0.00007   0.00144
  62        2PZ         0.00012   0.00007   0.00002   0.00000   0.00001
  63        3S          0.00028  -0.01493   0.00004   0.00009   0.00536
  64        3PX        -0.00006   0.00311   0.00042   0.00026  -0.00363
  65        3PY         0.00016  -0.00111  -0.00061  -0.00009   0.00195
  66        3PZ        -0.00049  -0.00022  -0.00006   0.00004   0.00003
  67        4D 0       -0.00006  -0.00031   0.00004   0.00006  -0.00083
  68        4D+1        0.00003   0.00004   0.00000  -0.00003  -0.00002
  69        4D-1        0.00006  -0.00001   0.00002   0.00000  -0.00001
  70        4D+2        0.00000  -0.00097   0.00006   0.00008   0.00105
  71        4D-2        0.00006  -0.00042   0.00006  -0.00007  -0.00091
  72 4   H  1S          0.00002  -0.00124  -0.00025  -0.00011   0.00025
  73        2S          0.00030   0.00017   0.00037   0.00057   0.00047
  74        3PX        -0.00001   0.00065  -0.00004  -0.00008   0.00002
  75        3PY         0.00002  -0.00192  -0.00001   0.00000   0.00002
  76        3PZ         0.00005   0.00000   0.00001   0.00000   0.00000
  77 5   O  1S          0.00000   0.00010   0.99505  -0.00055  -0.00273
  78        2S          0.00008   0.00000   0.02897   0.00012   0.00420
  79        2PX        -0.00003   0.00002  -0.00101   0.00011   0.00408
  80        2PY        -0.00009   0.00011   0.00107   0.00014   0.00287
  81        2PZ        -0.00007   0.00001  -0.00002   0.00003   0.00006
  82        3S         -0.00064   0.00017  -0.01502  -0.00010   0.00614
  83        3PX        -0.00011   0.00018  -0.00262  -0.00030   0.00327
  84        3PY         0.00033  -0.00071  -0.00187  -0.00039   0.00255
  85        3PZ        -0.00018   0.00000  -0.00022  -0.00014  -0.00012
  86        4D 0        0.00000   0.00011  -0.00029   0.00007  -0.00093
  87        4D+1        0.00001   0.00000  -0.00003   0.00001   0.00001
  88        4D-1        0.00002   0.00002  -0.00003  -0.00002   0.00001
  89        4D+2        0.00000   0.00018   0.00063   0.00003   0.00044
  90        4D-2        0.00005  -0.00002  -0.00085   0.00010   0.00136
  91 6   H  1S          0.00006   0.00005  -0.00117   0.00004   0.00007
  92        2S         -0.00053   0.00043   0.00035  -0.00005   0.00023
  93        3PX        -0.00003   0.00001  -0.00188   0.00002   0.00000
  94        3PY        -0.00005   0.00009   0.00070   0.00004  -0.00005
  95        3PZ        -0.00005   0.00001   0.00001   0.00001   0.00001
  96 7   O  1S          0.99498  -0.00001   0.00003   0.00001  -0.00099
  97        2S          0.02900   0.00010   0.00011   0.00004   0.00087
  98        2PX         0.00127   0.00002   0.00001   0.00004   0.00022
  99        2PY         0.00180   0.00000  -0.00003   0.00004   0.00032
 100        2PZ        -0.00059  -0.00004   0.00010  -0.00004  -0.00171
 101        3S         -0.01291  -0.00029  -0.00076  -0.00009   0.00343
 102        3PX        -0.00067  -0.00035  -0.00006  -0.00023   0.00065
 103        3PY        -0.00086  -0.00009   0.00047  -0.00030   0.00109
 104        3PZ         0.00237   0.00016   0.00001   0.00022  -0.00169
 105        4D 0       -0.00103   0.00005   0.00002   0.00006   0.00084
 106        4D+1        0.00010   0.00010   0.00001   0.00000  -0.00032
 107        4D-1        0.00014   0.00000  -0.00002   0.00009  -0.00046
 108        4D+2        0.00016  -0.00006  -0.00008   0.00004  -0.00003
 109        4D-2       -0.00048   0.00003  -0.00002   0.00001   0.00002
 110 8   H  1S         -0.00065   0.00010   0.00008   0.00006   0.00021
 111        2S          0.00129  -0.00090   0.00043   0.00033  -0.00091
 112        3PX         0.00175  -0.00013  -0.00007  -0.00002  -0.00011
 113        3PY         0.00013   0.00000  -0.00002  -0.00003  -0.00001
 114        3PZ        -0.00014   0.00006  -0.00002  -0.00004  -0.00014
 115 9   H  1S         -0.00061  -0.00002  -0.00010   0.00010   0.00022
 116        2S          0.00094   0.00056  -0.00075  -0.00115  -0.00123
 117        3PX        -0.00045   0.00005   0.00008   0.00003  -0.00003
 118        3PY         0.00173  -0.00001   0.00010  -0.00008  -0.00010
 119        3PZ        -0.00013  -0.00004   0.00009   0.00009  -0.00014
                           6         7         8         9        10
                           O         O         O         O         O
     Eigenvalues --    -1.52064  -1.51216  -1.51093  -1.10539  -0.97179
   1 1   Ti 1S         -0.00990  -0.00011  -0.00063  -0.01537  -0.03471
   2        2S         -0.01794  -0.00015  -0.00175  -0.03463  -0.07916
   3        3S         -0.01618  -0.00069   0.00042  -0.01604  -0.03669
   4        4S         -0.00012   0.00104  -0.00016   0.00665  -0.00568
   5        5S         -0.00077  -0.00059   0.00030   0.01304   0.01380
   6        6S          0.00018   0.00033  -0.00014  -0.00198  -0.00197
   7        7PX        -0.00950   0.01565   0.10239   0.00115  -0.00874
   8        7PY         0.10086  -0.00647   0.01080   0.00159   0.00630
   9        7PZ         0.00839   0.10417  -0.01508  -0.01095   0.00027
  10        8PX        -0.06464   0.10653   0.69714   0.00808  -0.06178
  11        8PY         0.68640  -0.04410   0.07349   0.01112   0.04448
  12        8PZ         0.05704   0.70874  -0.10260  -0.07660   0.00188
  13        9PX        -0.03667   0.05981   0.39033   0.00355  -0.03046
  14        9PY         0.39039  -0.02499   0.04133   0.00491   0.02194
  15        9PZ         0.03226   0.39681  -0.05736  -0.03486   0.00041
  16       10PX        -0.00257   0.00236   0.00680   0.00451  -0.00568
  17       10PY         0.00620   0.00032   0.00065   0.00454   0.00326
  18       10PZ         0.00205   0.00909   0.00018   0.01322  -0.00166
  19       11PX         0.00004  -0.00034  -0.00106  -0.00057   0.00400
  20       11PY        -0.00135  -0.00012  -0.00014  -0.00144  -0.00365
  21       11PZ        -0.00053  -0.00176   0.00003   0.00489  -0.00002
  22       12D 0       -0.00706   0.00064  -0.00061   0.01726  -0.03323
  23       12D+1       -0.00010   0.00049  -0.00020  -0.00303   0.00046
  24       12D-1        0.00008   0.00484  -0.00094  -0.00525   0.00004
  25       12D+2       -0.01479   0.00155   0.00087  -0.00011   0.02417
  26       12D-2       -0.00277   0.00034   0.00171   0.00055  -0.01436
  27       13D 0        0.00025   0.00213   0.00049   0.00724   0.00035
  28       13D+1       -0.00048   0.00068   0.00057  -0.00009  -0.00006
  29       13D-1        0.00010  -0.00083  -0.00001   0.00128   0.00076
  30       13D+2       -0.00446   0.00060   0.00054  -0.00016  -0.00276
  31       13D-2       -0.00013  -0.00135  -0.00480  -0.00273  -0.00373
  32       14D 0        0.00069  -0.00043   0.00064   0.00704  -0.00323
  33       14D+1       -0.00015  -0.00004  -0.00040   0.00048  -0.00059
  34       14D-1       -0.00029   0.00032   0.00009   0.00097   0.00036
  35       14D+2        0.00167  -0.00035  -0.00066  -0.00002   0.00179
  36       14D-2        0.00116  -0.00021   0.00091  -0.00276  -0.00056
  37       15F 0       -0.00007   0.00315  -0.00060   0.00466  -0.00036
  38       15F+1        0.00008  -0.00009  -0.00099  -0.00059  -0.00188
  39       15F-1       -0.00204   0.00034  -0.00034  -0.00098   0.00168
  40       15F+2       -0.00036   0.00002   0.00006   0.00029   0.00003
  41       15F-2        0.00009  -0.00029   0.00040  -0.00024  -0.00011
  42       15F+3        0.00077   0.00002   0.00094  -0.00009   0.00190
  43       15F-3       -0.00238   0.00043   0.00028   0.00014  -0.00816
  44 2   O  1S         -0.03548   0.00274  -0.00026  -0.00282  -0.01689
  45        2S          0.07279  -0.00574   0.00063   0.00537   0.03523
  46        2PX         0.00516   0.00108   0.01030   0.00004  -0.00181
  47        2PY        -0.05327   0.00436   0.00051  -0.00102  -0.00866
  48        2PZ         0.00102   0.01097  -0.00156   0.00005   0.00011
  49        3S          0.04805  -0.00314   0.00013   0.00638   0.03765
  50        3PX         0.00096   0.00083   0.00557   0.00037   0.00156
  51        3PY        -0.01279   0.00054   0.00057  -0.00280  -0.00829
  52        3PZ         0.00063   0.00474  -0.00091   0.00017   0.00007
  53        4D 0       -0.00341   0.00024  -0.00004   0.00027  -0.00115
  54        4D+1       -0.00001   0.00024  -0.00004  -0.00020  -0.00001
  55        4D-1       -0.00026  -0.00283   0.00042  -0.00064   0.00004
  56        4D+2       -0.00636   0.00054   0.00051  -0.00036  -0.00071
  57        4D-2       -0.00122  -0.00033  -0.00273  -0.00006   0.00021
  58 3   O  1S          0.00864  -0.00328  -0.01718  -0.00449  -0.20330
  59        2S         -0.01781   0.00678   0.03605   0.00853   0.44271
  60        2PX         0.01293  -0.00434  -0.02240  -0.00081   0.00404
  61        2PY         0.00039   0.00115   0.00814  -0.00113  -0.08603
  62        2PZ         0.00038   0.00516  -0.00059   0.00100   0.00237
  63        3S         -0.01425   0.00553   0.02804   0.01091   0.46040
  64        3PX         0.00485  -0.00174  -0.00713  -0.00246  -0.02870
  65        3PY         0.00329   0.00031   0.00328  -0.00033  -0.02102
  66        3PZ        -0.00004   0.00318  -0.00041   0.00246   0.00416
  67        4D 0        0.00081  -0.00025  -0.00120   0.00029  -0.00591
  68        4D+1       -0.00008  -0.00161   0.00019  -0.00083  -0.00017
  69        4D-1        0.00006   0.00045  -0.00005  -0.00005  -0.00012
  70        4D+2       -0.00182   0.00038   0.00144   0.00018   0.00068
  71        4D-2       -0.00047  -0.00024  -0.00174  -0.00028  -0.00704
  72 4   H  1S         -0.00188   0.00071   0.00341   0.00262   0.15956
  73        2S          0.00241  -0.00052  -0.00102  -0.00104   0.01975
  74        3PX         0.00032  -0.00011  -0.00067  -0.00008  -0.00841
  75        3PY        -0.00059   0.00016   0.00070   0.00038   0.02109
  76        3PZ         0.00002   0.00002   0.00000  -0.00015   0.00004
  77 5   O  1S          0.00895   0.00178   0.01752  -0.00598  -0.07454
  78        2S         -0.01899  -0.00371  -0.03672   0.01226   0.16164
  79        2PX        -0.01229  -0.00161  -0.01821  -0.00014  -0.02231
  80        2PY        -0.00468  -0.00202  -0.01694   0.00183   0.02123
  81        2PZ         0.00045   0.00538  -0.00080   0.00355  -0.00079
  82        3S         -0.01404  -0.00206  -0.02791   0.01662   0.16991
  83        3PX        -0.00531   0.00017  -0.00388   0.00173   0.00214
  84        3PY         0.00030  -0.00100  -0.00689   0.00095   0.01651
  85        3PZ         0.00008   0.00275  -0.00037  -0.00051  -0.00037
  86        4D 0        0.00061   0.00003   0.00150  -0.00017  -0.00285
  87        4D+1        0.00013   0.00125  -0.00010   0.00027  -0.00013
  88        4D-1        0.00005   0.00101  -0.00014   0.00026   0.00006
  89        4D+2       -0.00173   0.00014  -0.00003   0.00022   0.00131
  90        4D-2       -0.00075  -0.00029  -0.00229   0.00005   0.00127
  91 6   H  1S         -0.00151  -0.00043  -0.00366   0.00324   0.05683
  92        2S         -0.00071   0.00074   0.00227   0.00200   0.00440
  93        3PX        -0.00038  -0.00015  -0.00120   0.00051   0.00779
  94        3PY        -0.00016   0.00002  -0.00007  -0.00007  -0.00265
  95        3PZ         0.00001   0.00006  -0.00002   0.00025   0.00000
  96 7   O  1S          0.00103  -0.01122   0.00317  -0.21138   0.00867
  97        2S         -0.00192   0.02326  -0.00679   0.46407  -0.02030
  98        2PX        -0.00064   0.00422   0.00105   0.06552  -0.00218
  99        2PY         0.00132   0.00543  -0.00151   0.09192  -0.00614
 100        2PZ         0.00180  -0.01301   0.00426  -0.01553  -0.00243
 101        3S         -0.00300   0.02091  -0.00569   0.44739  -0.01817
 102        3PX        -0.00092   0.00223   0.00069   0.03172   0.00017
 103        3PY         0.00217   0.00247  -0.00043   0.04373  -0.00287
 104        3PZ         0.00146  -0.00628   0.00220  -0.01873  -0.00187
 105        4D 0       -0.00070   0.00166  -0.00085  -0.00174   0.00002
 106        4D+1        0.00026  -0.00094  -0.00050  -0.00277  -0.00017
 107        4D-1       -0.00080  -0.00108   0.00031  -0.00348   0.00030
 108        4D+2       -0.00045  -0.00005   0.00016  -0.00029   0.00071
 109        4D-2        0.00008   0.00037   0.00017   0.00056  -0.00011
 110 8   H  1S         -0.00088   0.00820  -0.00028   0.14526  -0.00290
 111        2S          0.00084  -0.00165   0.00002  -0.01147   0.00325
 112        3PX         0.00004  -0.00145   0.00038  -0.02367   0.00196
 113        3PY         0.00008   0.00048   0.00010   0.00216  -0.00026
 114        3PZ         0.00028  -0.00180  -0.00034  -0.00018  -0.00094
 115 9   H  1S          0.00097   0.00779  -0.00298   0.14465  -0.00676
 116        2S         -0.00088  -0.00106  -0.00104  -0.01150  -0.00105
 117        3PX         0.00009   0.00090  -0.00013   0.00974  -0.00069
 118        3PY         0.00032  -0.00125   0.00048  -0.02167   0.00099
 119        3PZ        -0.00068  -0.00164   0.00093  -0.00008  -0.00017
                          11        12        13        14        15
                           O         O         O         O         O
     Eigenvalues --    -0.95676  -0.85802  -0.62546  -0.49076  -0.48336
   1 1   Ti 1S         -0.01677  -0.04687  -0.00155  -0.05597  -0.01430
   2        2S         -0.03857  -0.10924  -0.00421  -0.13687  -0.03684
   3        3S         -0.01710  -0.05419   0.00005  -0.06828  -0.01168
   4        4S         -0.00227   0.00850  -0.00205   0.13492   0.03305
   5        5S          0.00467   0.00880   0.00050  -0.02851  -0.00095
   6        6S         -0.00045  -0.00153  -0.00002   0.00399   0.00084
   7        7PX         0.01794   0.00290  -0.00276  -0.00870   0.01528
   8        7PY         0.00460  -0.02942   0.00154   0.00839   0.00791
   9        7PZ         0.00026  -0.00001   0.00014  -0.00069  -0.00023
  10        8PX         0.12701   0.02069  -0.01997  -0.06368   0.11238
  11        8PY         0.03255  -0.21031   0.01110   0.06156   0.05772
  12        8PZ         0.00184  -0.00004   0.00101  -0.00499  -0.00173
  13        9PX         0.06262   0.01056  -0.00737  -0.02071   0.03771
  14        9PY         0.01528  -0.10551   0.00483   0.02105   0.02094
  15        9PZ         0.00087  -0.00056   0.00041  -0.00255   0.00096
  16       10PX         0.01165   0.00220   0.01750   0.02053  -0.03744
  17       10PY         0.00242  -0.00633  -0.00987  -0.01809  -0.04355
  18       10PZ        -0.00319   0.00045  -0.00378   0.01277  -0.00143
  19       11PX        -0.00907  -0.00057  -0.00061  -0.00155   0.00585
  20       11PY        -0.00239   0.00887  -0.00006   0.00683  -0.00405
  21       11PZ         0.00031  -0.00041   0.00041  -0.00307   0.00505
  22       12D 0       -0.01677  -0.05363  -0.00263  -0.09849  -0.02758
  23       12D+1       -0.00013  -0.00023   0.02971  -0.00257  -0.02110
  24       12D-1        0.00016   0.00107  -0.02167  -0.00455  -0.03014
  25       12D+2        0.00536  -0.09529  -0.00779   0.12838  -0.06360
  26       12D-2        0.04218  -0.01817  -0.00046   0.01781   0.14371
  27       13D 0       -0.00142  -0.00299  -0.00009  -0.01883  -0.01180
  28       13D+1        0.00048   0.00006   0.02226  -0.00002  -0.01226
  29       13D-1        0.00072   0.00030  -0.01531  -0.00115  -0.01734
  30       13D+2        0.00432  -0.01270  -0.00322   0.04143  -0.02826
  31       13D-2       -0.00219  -0.00346   0.00015   0.00842   0.04252
  32       14D 0       -0.00176  -0.00190  -0.00162   0.00054   0.00104
  33       14D+1        0.00109   0.00063   0.00248  -0.00165  -0.00703
  34       14D-1       -0.00019  -0.00064  -0.00133   0.00009  -0.01085
  35       14D+2        0.00038  -0.00206   0.00063   0.00578  -0.00535
  36       14D-2        0.00103  -0.00110  -0.00258   0.00462   0.00510
  37       15F 0       -0.00029  -0.00004   0.00039   0.00007  -0.00109
  38       15F+1        0.00449   0.00071   0.00788  -0.00421   0.00419
  39       15F-1        0.00128  -0.00884  -0.00591   0.00395  -0.00112
  40       15F+2        0.00007   0.00000   0.00019   0.00059   0.00058
  41       15F-2       -0.00009  -0.00015  -0.00114   0.00001   0.00239
  42       15F+3       -0.00117   0.00336   0.00002   0.01444   0.00044
  43       15F-3       -0.00422  -0.01118  -0.00036  -0.01170  -0.00587
  44 2   O  1S         -0.00800  -0.22630  -0.00384   0.00545   0.00380
  45        2S          0.01644   0.49913   0.00935  -0.01595  -0.00763
  46        2PX         0.00501   0.00332   0.00444   0.00636   0.05061
  47        2PY        -0.00314  -0.04521  -0.00174  -0.00282  -0.02478
  48        2PZ         0.00006   0.00290  -0.01470  -0.00128  -0.02122
  49        3S          0.02083   0.55104   0.01051  -0.01026  -0.02103
  50        3PX         0.00235   0.00339   0.00204   0.00600   0.02551
  51        3PY        -0.00425  -0.04998   0.00237  -0.00472  -0.00743
  52        3PZ         0.00014   0.00445  -0.00571  -0.00207  -0.00992
  53        4D 0       -0.00047  -0.00234  -0.00040  -0.00112  -0.00099
  54        4D+1       -0.00001  -0.00022   0.00029  -0.00004   0.00000
  55        4D-1        0.00004  -0.00038   0.00105   0.00009   0.00133
  56        4D+2       -0.00021  -0.00725   0.00037   0.00150  -0.00034
  57        4D-2       -0.00082  -0.00152  -0.00057  -0.00187  -0.00426
  58 3   O  1S          0.07459   0.01249   0.00440  -0.04789   0.02290
  59        2S         -0.16222  -0.02882  -0.01238   0.10366  -0.05042
  60        2PX        -0.00684  -0.00904  -0.00957  -0.23896   0.11973
  61        2PY         0.03755   0.00529   0.00799   0.39478  -0.17704
  62        2PZ        -0.00110  -0.00026   0.02198   0.00322  -0.01229
  63        3S         -0.17434  -0.02763  -0.00937   0.19185  -0.08955
  64        3PX         0.00767  -0.00463  -0.00943  -0.14066   0.07028
  65        3PY         0.01148   0.00392   0.00283   0.21726  -0.09822
  66        3PZ        -0.00124  -0.00050   0.01274   0.00282  -0.00721
  67        4D 0        0.00181  -0.00007   0.00086   0.00300  -0.00167
  68        4D+1        0.00007   0.00002  -0.00138  -0.00053   0.00059
  69        4D-1        0.00003   0.00001  -0.00065   0.00073  -0.00039
  70        4D+2       -0.00069   0.00041   0.00104   0.01489  -0.00880
  71        4D-2        0.00165   0.00141   0.00007  -0.00237   0.00052
  72 4   H  1S         -0.06188  -0.01209  -0.00934  -0.23564   0.10923
  73        2S         -0.00852  -0.00418  -0.00748  -0.13951   0.06494
  74        3PX         0.00326   0.00069   0.00036   0.00335  -0.00106
  75        3PY        -0.00819  -0.00143  -0.00097  -0.01447   0.00630
  76        3PZ        -0.00005  -0.00001   0.00068  -0.00022  -0.00033
  77 5   O  1S         -0.20337   0.01182  -0.00370  -0.01704  -0.03896
  78        2S          0.44402  -0.02743   0.00804   0.03658   0.08443
  79        2PX        -0.07347   0.01631  -0.00273   0.24045   0.37444
  80        2PY         0.04856  -0.00477  -0.00595   0.01609  -0.06964
  81        2PZ        -0.00169  -0.00003  -0.01226   0.00594   0.03768
  82        3S          0.46085  -0.02518   0.01249   0.06715   0.15526
  83        3PX        -0.00113   0.00750  -0.00052   0.13427   0.20794
  84        3PY         0.03292   0.00056  -0.00365   0.01209  -0.03184
  85        3PZ        -0.00066  -0.00008  -0.00486   0.00248   0.02279
  86        4D 0       -0.00671  -0.00010  -0.00028   0.00058   0.00329
  87        4D+1       -0.00030  -0.00003   0.00038  -0.00034  -0.00006
  88        4D-1        0.00026  -0.00002  -0.00068   0.00022   0.00133
  89        4D+2        0.00621   0.00039   0.00086  -0.00480   0.00098
  90        4D-2        0.00235  -0.00039  -0.00035   0.00920   0.01196
  91 6   H  1S          0.16107  -0.01547   0.00265  -0.12030  -0.19627
  92        2S          0.02112  -0.00096   0.00330  -0.07333  -0.11735
  93        3PX         0.02190  -0.00196   0.00017  -0.00629  -0.01177
  94        3PY        -0.00673   0.00055  -0.00027   0.00436   0.00507
  95        3PZ         0.00003   0.00000  -0.00069   0.00016   0.00113
  96 7   O  1S          0.00493   0.00376   0.00049   0.00033  -0.03502
  97        2S         -0.01164  -0.00877  -0.00154  -0.00142   0.08174
  98        2PX        -0.00913  -0.00282   0.42304  -0.03116  -0.15535
  99        2PY        -0.00435   0.00090  -0.29935  -0.01958  -0.22817
 100        2PZ        -0.00433  -0.00179  -0.00077  -0.04291  -0.07435
 101        3S         -0.00811  -0.01015  -0.00146   0.00017   0.13842
 102        3PX        -0.00348  -0.00069   0.21146  -0.01659  -0.09603
 103        3PY        -0.00329   0.00171  -0.15115  -0.01070  -0.14138
 104        3PZ        -0.00230  -0.00138  -0.00161  -0.02747  -0.04820
 105        4D 0        0.00054  -0.00038   0.00004   0.00126   0.01065
 106        4D+1        0.00075  -0.00003  -0.00493  -0.00063   0.00069
 107        4D-1        0.00025  -0.00011   0.00359  -0.00079   0.00092
 108        4D+2        0.00015  -0.00064   0.02823   0.00038   0.00389
 109        4D-2       -0.00005  -0.00018   0.00983  -0.00155  -0.01168
 110 8   H  1S         -0.00852  -0.00377   0.24309  -0.01090  -0.06889
 111        2S         -0.00348  -0.00177   0.10071  -0.00842  -0.04458
 112        3PX         0.00091   0.00049  -0.01612   0.00233   0.00270
 113        3PY        -0.00001  -0.00001  -0.00760  -0.00019  -0.00761
 114        3PZ         0.00037   0.00001  -0.00239  -0.00244  -0.00079
 115 9   H  1S         -0.00289   0.00214  -0.24340  -0.00375  -0.07166
 116        2S          0.00383   0.00482  -0.09431  -0.00979  -0.04203
 117        3PX        -0.00064  -0.00007   0.00198  -0.00152  -0.00787
 118        3PY         0.00019   0.00130   0.01796   0.00019   0.00067
 119        3PZ        -0.00046  -0.00101   0.00216  -0.00128  -0.00138
                          16        17        18        19        20
                           O         O         O         O         O
     Eigenvalues --    -0.45819  -0.42339  -0.35702  -0.33905  -0.33419
   1 1   Ti 1S         -0.01431   0.02595   0.03863   0.00016  -0.00789
   2        2S         -0.03402   0.05895   0.09534   0.00090  -0.01636
   3        3S         -0.02023   0.04676   0.05369  -0.00171  -0.02072
   4        4S          0.03352  -0.13415  -0.11801  -0.00385   0.06595
   5        5S         -0.02989   0.03319   0.07122   0.00165  -0.02734
   6        6S          0.00374   0.00066  -0.01096  -0.00037   0.00221
   7        7PX         0.00738  -0.00054   0.00194   0.00126   0.01396
   8        7PY         0.00299  -0.00179  -0.00243   0.00004   0.01074
   9        7PZ        -0.00154   0.01347  -0.00012  -0.00206   0.00098
  10        8PX         0.05450  -0.00386   0.01485   0.00936   0.10329
  11        8PY         0.02193  -0.01315  -0.01740   0.00025   0.08021
  12        8PZ        -0.01116   0.09888  -0.00090  -0.01532   0.00726
  13        9PX         0.01794  -0.00125   0.00793   0.00185   0.03695
  14        9PY         0.00664  -0.00353  -0.00589   0.00132   0.03188
  15        9PZ        -0.00651   0.02821   0.00082  -0.00374   0.00121
  16       10PX         0.00723  -0.01304   0.01987   0.00441  -0.07552
  17       10PY         0.01773  -0.00852   0.07352  -0.01680   0.04165
  18       10PZ         0.00290  -0.10987   0.00195   0.03209  -0.00891
  19       11PX         0.00932   0.00163   0.02262  -0.00399   0.01485
  20       11PY         0.00148  -0.00069   0.00794   0.00485   0.02476
  21       11PZ        -0.01254   0.04128   0.00078   0.00821   0.00305
  22       12D 0       -0.00417  -0.13958   0.12154  -0.01670  -0.01756
  23       12D+1        0.03864   0.03968   0.00231   0.18681  -0.00167
  24       12D-1        0.05362   0.05904  -0.01456  -0.13620   0.01529
  25       12D+2       -0.02023  -0.00366   0.09218   0.00806   0.26569
  26       12D-2        0.09707   0.02327   0.24928  -0.00433   0.03177
  27       13D 0        0.00905  -0.07084   0.03795  -0.00581  -0.01879
  28       13D+1        0.02442   0.01203   0.00134   0.08809  -0.00437
  29       13D-1        0.03427   0.01410  -0.00463  -0.06867   0.00866
  30       13D+2       -0.01335  -0.00417   0.04419   0.01194   0.09456
  31       13D-2        0.02879   0.02632   0.10875  -0.00491  -0.02854
  32       14D 0       -0.00262   0.01004  -0.01379  -0.00014   0.00740
  33       14D+1        0.01759   0.00161   0.00115   0.04410  -0.00400
  34       14D-1        0.02036   0.00030   0.00050  -0.02903   0.00491
  35       14D+2       -0.00974   0.00011   0.02156   0.00366  -0.01472
  36       14D-2        0.00052   0.00988   0.00951  -0.00373  -0.04706
  37       15F 0        0.00344  -0.00916   0.00073  -0.00355  -0.00041
  38       15F+1        0.00840   0.00301   0.00317   0.00076   0.00577
  39       15F-1        0.00800   0.00319   0.00080  -0.00035   0.00774
  40       15F+2       -0.00140  -0.00214   0.00078   0.01605  -0.00140
  41       15F-2       -0.00469  -0.00063   0.00101  -0.00919  -0.00036
  42       15F+3        0.00003   0.00142  -0.00903   0.00000  -0.00667
  43       15F-3       -0.00321  -0.00439   0.01324  -0.00110  -0.00532
  44 2   O  1S          0.00660  -0.00119  -0.01750  -0.00067  -0.01133
  45        2S         -0.01483   0.00377   0.03637   0.00060   0.02409
  46        2PX         0.03840   0.01974   0.19609  -0.01324  -0.14079
  47        2PY        -0.01094  -0.01832   0.23118  -0.00275   0.21639
  48        2PZ         0.04367   0.00159  -0.01567  -0.17504   0.01608
  49        3S         -0.02907   0.00186   0.09520   0.01119   0.04645
  50        3PX         0.01658   0.00638   0.11810  -0.00736  -0.07890
  51        3PY        -0.01079  -0.00432   0.13132  -0.00097   0.12959
  52        3PZ         0.02224   0.00154  -0.01121  -0.10937   0.00987
  53        4D 0        0.00013  -0.00133   0.00373  -0.00042   0.00284
  54        4D+1        0.00031   0.00061   0.00039   0.00060  -0.00020
  55        4D-1       -0.00289   0.00063   0.00133   0.00858  -0.00021
  56        4D+2       -0.00048  -0.00004   0.00779   0.00019   0.00649
  57        4D-2       -0.00314  -0.00071  -0.01075   0.00065   0.00721
  58 3   O  1S          0.01292  -0.00460  -0.02221   0.00353   0.02067
  59        2S         -0.02993   0.01131   0.05327  -0.00825  -0.04253
  60        2PX         0.06616   0.00699   0.40891  -0.01349  -0.09492
  61        2PY        -0.07861   0.01626   0.22041  -0.01671  -0.14296
  62        2PZ         0.02531  -0.03150   0.01400   0.54246  -0.03649
  63        3S         -0.04689   0.02120   0.09016  -0.01884  -0.11425
  64        3PX         0.03674   0.00694   0.28563  -0.00657  -0.05563
  65        3PY        -0.04383   0.01025   0.14575  -0.01368  -0.10234
  66        3PZ         0.01524  -0.02613   0.00996   0.39692  -0.02575
  67        4D 0        0.00001  -0.00102   0.00595   0.00115  -0.00365
  68        4D+1       -0.00087   0.00230   0.00043  -0.01261   0.00049
  69        4D-1       -0.00025   0.00111   0.00021  -0.01195   0.00055
  70        4D+2       -0.00449  -0.00002  -0.00527  -0.00029  -0.00404
  71        4D-2       -0.00090  -0.00088  -0.01810   0.00061   0.00049
  72 4   H  1S          0.05008  -0.00398  -0.01845   0.00427   0.05511
  73        2S          0.03633   0.00295  -0.00644   0.00006   0.04320
  74        3PX        -0.00011   0.00047   0.01509  -0.00062  -0.00516
  75        3PY         0.00273  -0.00013   0.00347  -0.00011  -0.00028
  76        3PZ         0.00099  -0.00076   0.00050   0.01885  -0.00124
  77 5   O  1S         -0.03420  -0.01217   0.00881   0.00184   0.01532
  78        2S          0.07587   0.02925  -0.01798  -0.00445  -0.03923
  79        2PX         0.24499   0.05798  -0.02300   0.00651   0.12232
  80        2PY        -0.04159  -0.01653   0.09855   0.03071   0.47943
  81        2PZ        -0.07821  -0.09897   0.01349  -0.08343  -0.02172
  82        3S          0.13863   0.03183  -0.04745  -0.00719  -0.04880
  83        3PX         0.14449   0.02683  -0.02002   0.00472   0.09654
  84        3PY        -0.02268  -0.01046   0.05812   0.02140   0.33907
  85        3PZ        -0.05090  -0.05972   0.01154  -0.05931  -0.01547
  86        4D 0        0.00000  -0.00004  -0.00162   0.00001  -0.00519
  87        4D+1       -0.00131  -0.00191   0.00020  -0.00018  -0.00018
  88        4D-1       -0.00217  -0.00394   0.00028  -0.00352  -0.00139
  89        4D+2       -0.00040  -0.00012  -0.00057  -0.00108  -0.01907
  90        4D-2        0.00834   0.00223   0.00042  -0.00022   0.00151
  91 6   H  1S         -0.12413  -0.02760   0.02740   0.00035   0.00154
  92        2S         -0.06439  -0.02354   0.00926  -0.00023   0.00103
  93        3PX        -0.00609  -0.00130   0.00193   0.00032   0.00652
  94        3PY         0.00314   0.00014   0.00226   0.00104   0.01532
  95        3PZ        -0.00258  -0.00369   0.00038  -0.00297  -0.00078
  96 7   O  1S          0.06428  -0.01893  -0.00366   0.00071   0.00020
  97        2S         -0.15458   0.05678   0.00937   0.00147  -0.00168
  98        2PX         0.27269  -0.02883  -0.00186  -0.08881   0.01650
  99        2PY         0.38811  -0.03956  -0.01210   0.01434  -0.01858
 100        2PZ         0.00290   0.59718  -0.00505   0.02182   0.02028
 101        3S         -0.24445   0.03738   0.01507  -0.02449   0.00680
 102        3PX         0.17275  -0.02778  -0.00568  -0.06547   0.01016
 103        3PY         0.24802  -0.03978  -0.00827   0.00997  -0.01136
 104        3PZ        -0.00596   0.41773   0.00057   0.01364   0.01427
 105        4D 0       -0.01378  -0.01102   0.00170   0.00067   0.00005
 106        4D+1       -0.00244   0.01776   0.00047  -0.00220   0.00193
 107        4D-1       -0.00397   0.02463  -0.00126   0.00225  -0.00024
 108        4D+2       -0.00748   0.00074   0.00051  -0.00152   0.00209
 109        4D-2        0.02100  -0.00254   0.00075  -0.00338  -0.00094
 110 8   H  1S          0.11209   0.00038  -0.00153  -0.01895   0.00943
 111        2S          0.06802   0.04916   0.00535   0.01217   0.00675
 112        3PX        -0.00472  -0.00204  -0.00078   0.00565  -0.00062
 113        3PY         0.01290  -0.00074   0.00080  -0.00051  -0.00081
 114        3PZ        -0.00062   0.01899   0.00054  -0.00427   0.00119
 115 9   H  1S          0.11277   0.00227  -0.01133   0.01738  -0.00901
 116        2S          0.06802   0.04990  -0.01432   0.01727  -0.01448
 117        3PX         0.01385   0.00011   0.00028  -0.00219  -0.00122
 118        3PY        -0.00014  -0.00208  -0.00051  -0.00341   0.00115
 119        3PZ        -0.00060   0.01884   0.00051   0.00276  -0.00050
                          21        22        23        24        25
                           O         O         O         O         V
     Eigenvalues --    -0.32248  -0.31143  -0.30709  -0.29303  -0.05916
   1 1   Ti 1S          0.00185   0.03844   0.03462   0.00490  -0.06388
   2        2S          0.00671   0.09503   0.08658   0.01283  -0.14642
   3        3S         -0.00495   0.05648   0.04586   0.00651  -0.15559
   4        4S          0.01373  -0.08826  -0.11476   0.00647   0.36172
   5        5S          0.02872   0.07188   0.07873  -0.01828   0.22990
   6        6S         -0.00621  -0.00971  -0.01390   0.00245   0.12624
   7        7PX        -0.00017  -0.00226  -0.00087  -0.01849   0.00001
   8        7PY         0.00137   0.01431   0.00779   0.00938  -0.00113
   9        7PZ        -0.00964   0.00660  -0.00873  -0.00012   0.00780
  10        8PX        -0.00129  -0.01708  -0.00662  -0.13704   0.00015
  11        8PY         0.01024   0.10692   0.05829   0.07001  -0.00873
  12        8PZ        -0.07111   0.04882  -0.06464  -0.00092   0.05862
  13        9PX        -0.00052  -0.00747  -0.00342  -0.05058  -0.00032
  14        9PY         0.00292   0.04218   0.02374   0.03026  -0.00599
  15        9PZ        -0.02040   0.01644  -0.02088  -0.00047   0.00509
  16       10PX        -0.00076  -0.02635  -0.01515   0.10244   0.02644
  17       10PY        -0.00239  -0.01040   0.02091  -0.01236   0.00046
  18       10PZ         0.09938  -0.09620   0.11943   0.00399  -0.11159
  19       11PX        -0.00316  -0.01565  -0.00452  -0.02361   0.00165
  20       11PY        -0.00600   0.00774   0.00451   0.01236  -0.03769
  21       11PZ        -0.00613  -0.00886   0.02461   0.00122   0.05996
  22       12D 0        0.03874   0.19219   0.03427   0.03099   0.52830
  23       12D+1        0.07400   0.04694  -0.08399   0.00245   0.25256
  24       12D-1        0.27668  -0.03408   0.01567   0.00467   0.18359
  25       12D+2        0.00698   0.17459   0.11533   0.07585  -0.07092
  26       12D-2       -0.00606  -0.08375  -0.04215   0.11162  -0.00866
  27       13D 0        0.02006   0.05121  -0.00324   0.00768   0.22432
  28       13D+1        0.03327   0.02266  -0.04286   0.00675   0.11240
  29       13D-1        0.11698  -0.01573   0.00826   0.00012   0.08871
  30       13D+2        0.00001   0.02469   0.01716  -0.01541  -0.01756
  31       13D-2       -0.00420  -0.02804  -0.01945   0.05987  -0.00983
  32       14D 0        0.00277  -0.03683   0.00967   0.01212   0.12922
  33       14D+1        0.02286   0.00962  -0.02737  -0.00069  -0.02032
[...]
                          91        92        93        94        95
  91 6   H  1S          0.20617
  92        2S          0.06377   0.05935
  93        3PX         0.00000   0.00000   0.00146
  94        3PY         0.00000   0.00000   0.00000   0.00090
  95        3PZ         0.00000   0.00000   0.00000   0.00000   0.00106
  96 7   O  1S          0.00000   0.00000   0.00000   0.00000   0.00000
  97        2S          0.00000   0.00000   0.00000   0.00000   0.00000
  98        2PX         0.00000   0.00000   0.00000   0.00000   0.00000
  99        2PY         0.00000   0.00000   0.00000   0.00000   0.00000
 100        2PZ         0.00000   0.00000   0.00000   0.00000   0.00000
 101        3S          0.00000   0.00002   0.00000   0.00000   0.00000
 102        3PX         0.00000   0.00004   0.00000   0.00000   0.00000
 103        3PY         0.00000   0.00002   0.00000   0.00000   0.00000
 104        3PZ         0.00000   0.00000   0.00000   0.00000   0.00000
 105        4D 0        0.00000   0.00000   0.00000   0.00000   0.00000
 106        4D+1        0.00000   0.00000   0.00000   0.00000   0.00000
 107        4D-1        0.00000   0.00000   0.00000   0.00000   0.00000
 108        4D+2        0.00000   0.00000   0.00000   0.00000   0.00000
 109        4D-2        0.00000   0.00000   0.00000   0.00000   0.00000
 110 8   H  1S          0.00000   0.00000   0.00000   0.00000   0.00000
 111        2S          0.00000  -0.00001   0.00000   0.00000   0.00000
 112        3PX         0.00000   0.00000   0.00000   0.00000   0.00000
 113        3PY         0.00000   0.00000   0.00000   0.00000   0.00000
 114        3PZ         0.00000   0.00000   0.00000   0.00000   0.00000
 115 9   H  1S          0.00000   0.00000   0.00000   0.00000   0.00000
 116        2S          0.00000  -0.00001   0.00000   0.00000   0.00000
 117        3PX         0.00000   0.00000   0.00000   0.00000   0.00000
 118        3PY         0.00000   0.00000   0.00000   0.00000   0.00000
 119        3PZ         0.00000   0.00000   0.00000   0.00000   0.00000
                          96        97        98        99       100
  96 7   O  1S          2.08055
  97        2S         -0.03861   0.49511
  98        2PX         0.00000   0.00000   0.65620
  99        2PY         0.00000   0.00000   0.00000   0.62478
 100        2PZ         0.00000   0.00000   0.00000   0.00000   0.74824
 101        3S         -0.04264   0.38839   0.00000   0.00000   0.00000
 102        3PX         0.00000   0.00000   0.20129   0.00000   0.00000
 103        3PY         0.00000   0.00000   0.00000   0.18296   0.00000
 104        3PZ         0.00000   0.00000   0.00000   0.00000   0.26216
 105        4D 0        0.00000   0.00000   0.00000   0.00000   0.00000
 106        4D+1        0.00000   0.00000   0.00000   0.00000   0.00000
 107        4D-1        0.00000   0.00000   0.00000   0.00000   0.00000
 108        4D+2        0.00000   0.00000   0.00000   0.00000   0.00000
 109        4D-2        0.00000   0.00000   0.00000   0.00000   0.00000
 110 8   H  1S         -0.00149   0.02256   0.07307   0.00719   0.00908
 111        2S          0.00086  -0.00895   0.01735   0.00124   0.00305
 112        3PX        -0.00060   0.00576   0.00379   0.00146   0.00208
 113        3PY        -0.00004   0.00034   0.00190   0.00155   0.00009
 114        3PZ        -0.00006   0.00057   0.00193   0.00004   0.00160
 115 9   H  1S         -0.00148   0.02246   0.00116   0.08170   0.00620
 116        2S          0.00087  -0.00928   0.00008   0.01891   0.00227
 117        3PX         0.00000   0.00000   0.00254   0.00048  -0.00002
 118        3PY        -0.00065   0.00629   0.00028   0.00630   0.00153
 119        3PZ        -0.00004   0.00036  -0.00003   0.00130   0.00199
                         101       102       103       104       105
 101        3S          0.55497
 102        3PX         0.00000   0.25007
 103        3PY         0.00000   0.00000   0.21694
 104        3PZ         0.00000   0.00000   0.00000   0.36831
 105        4D 0        0.00000   0.00000   0.00000   0.00000   0.00047
 106        4D+1        0.00000   0.00000   0.00000   0.00000   0.00000
 107        4D-1        0.00000   0.00000   0.00000   0.00000   0.00000
 108        4D+2        0.00000   0.00000   0.00000   0.00000   0.00000
 109        4D-2        0.00000   0.00000   0.00000   0.00000   0.00000
 110 8   H  1S          0.02238   0.08329   0.00638   0.01020   0.00046
 111        2S         -0.03071   0.03242   0.00130   0.00624   0.00006
 112        3PX         0.00403   0.00030   0.00065   0.00096   0.00000
 113        3PY        -0.00001   0.00095   0.00239   0.00001   0.00000
 114        3PZ         0.00050   0.00093  -0.00002   0.00319   0.00002
 115 9   H  1S          0.02315   0.00059   0.09264   0.00719   0.00057
 116        2S         -0.03081  -0.00025   0.03501   0.00482   0.00007
 117        3PX        -0.00009   0.00326   0.00027  -0.00002   0.00000
 118        3PY         0.00430   0.00013   0.00086   0.00069   0.00001
 119        3PZ         0.00035  -0.00003   0.00061   0.00345   0.00001
                         106       107       108       109       110
 106        4D+1        0.00061
 107        4D-1        0.00000   0.00048
 108        4D+2        0.00000   0.00000   0.00118
 109        4D-2        0.00000   0.00000   0.00000   0.00088
 110 8   H  1S          0.00112  -0.00003   0.00300  -0.00037   0.19679
 111        2S          0.00010  -0.00001   0.00024  -0.00006   0.04905
 112        3PX         0.00012  -0.00002   0.00004   0.00004   0.00000
 113        3PY         0.00001   0.00002  -0.00001   0.00018   0.00000
 114        3PZ         0.00009  -0.00003   0.00006  -0.00002   0.00000
 115 9   H  1S         -0.00003   0.00086   0.00324  -0.00048  -0.00152
 116        2S          0.00000   0.00008   0.00024  -0.00005  -0.00456
 117        3PX         0.00001   0.00000  -0.00004   0.00022   0.00027
 118        3PY        -0.00001   0.00010   0.00012  -0.00002   0.00004
 119        3PZ        -0.00002   0.00010   0.00004  -0.00001   0.00001
                         111       112       113       114       115
 111        2S          0.03852
 112        3PX         0.00000   0.00165
 113        3PY         0.00000   0.00000   0.00074
 114        3PZ         0.00000   0.00000   0.00000   0.00076
 115 9   H  1S         -0.00480  -0.00001   0.00035  -0.00001   0.19478
 116        2S         -0.00173  -0.00017   0.00032  -0.00001   0.04761
 117        3PX         0.00028   0.00001   0.00002   0.00000   0.00000
 118        3PY        -0.00016   0.00003   0.00003   0.00000   0.00000
 119        3PZ         0.00001   0.00000   0.00000   0.00000   0.00000
                         116       117       118       119
 116        2S          0.03625
 117        3PX         0.00000   0.00065
 118        3PY         0.00000   0.00000   0.00179
 119        3PZ         0.00000   0.00000   0.00000   0.00070
     Gross orbital populations:
                           1
   1 1   Ti 1S         -0.30624
   2        2S          1.33622
   3        3S          0.97992
   4        4S          0.14937
   5        5S          0.01004
   6        6S         -0.00300
   7        7PX        -0.07517
   8        7PY        -0.07422
   9        7PZ        -0.07358
  10        8PX         1.41572
  11        8PY         1.40149
  12        8PZ         1.39518
  13        9PX         0.67924
  14        9PY         0.68403
  15        9PZ         0.68994
  16       10PX         0.09062
  17       10PY         0.06726
  18       10PZ         0.15920
  19       11PX         0.01460
  20       11PY         0.01806
  21       11PZ         0.01474
  22       12D 0        0.23982
  23       12D+1        0.18963
  24       12D-1        0.30916
  25       12D+2        0.43365
  26       12D-2        0.34768
  27       13D 0        0.07588
  28       13D+1        0.11002
  29       13D-1        0.16759
  30       13D+2        0.10739
  31       13D-2        0.17084
  32       14D 0        0.02693
  33       14D+1        0.04585
  34       14D-1        0.03801
  35       14D+2        0.05416
  36       14D-2        0.03757
  37       15F 0        0.01113
  38       15F+1        0.00673
  39       15F-1        0.00724
  40       15F+2        0.01001
  41       15F-2        0.00623
  42       15F+3        0.01775
  43       15F-3        0.01677
  44 2   O  1S          1.99747
  45        2S          0.93198
  46        2PX         0.93983
  47        2PY         0.96633
  48        2PZ         0.89011
  49        3S          1.02186
  50        3PX         0.63061
  51        3PY         0.50250
  52        3PZ         0.60572
  53        4D 0        0.00142
  54        4D+1        0.00030
  55        4D-1        0.00503
  56        4D+2        0.00344
  57        4D-2        0.00468
  58 3   O  1S          1.99699
  59        2S          0.89414
  60        2PX         1.01637
  61        2PY         0.89371
  62        2PZ         0.98526
  63        3S          0.97528
  64        3PX         0.67204
  65        3PY         0.54611
  66        3PZ         0.70253
  67        4D 0        0.00110
  68        4D+1        0.00136
  69        4D-1        0.00171
  70        4D+2        0.00460
  71        4D-2        0.00170
  72 4   H  1S          0.48989
  73        2S          0.13651
  74        3PX         0.01060
  75        3PY         0.01885
  76        3PZ         0.01134
  77 5   O  1S          1.99699
  78        2S          0.89489
  79        2PX         0.90580
  80        2PY         1.01815
  81        2PZ         0.97535
  82        3S          0.97239
  83        3PX         0.54298
  84        3PY         0.68891
  85        3PZ         0.67424
  86        4D 0        0.00070
  87        4D+1        0.00190
  88        4D-1        0.00204
  89        4D+2        0.00230
  90        4D-2        0.00309
  91 6   H  1S          0.48823
  92        2S          0.12705
  93        3PX         0.01744
  94        3PY         0.01092
  95        3PZ         0.01232
  96 7   O  1S          1.99671
  97        2S          0.89220
  98        2PX         0.96332
  99        2PY         0.92970
 100        2PZ         1.05877
 101        3S          0.91716
 102        3PX         0.58272
 103        3PY         0.54254
 104        3PZ         0.70466
 105        4D 0        0.00196
 106        4D+1        0.00226
 107        4D-1        0.00202
 108        4D+2        0.00812
 109        4D-2        0.00035
 110 8   H  1S          0.47270
 111        2S          0.09022
 112        3PX         0.02003
 113        3PY         0.00887
 114        3PZ         0.00996
 115 9   H  1S          0.46920
 116        2S          0.08721
 117        3PX         0.00793
 118        3PY         0.02154
 119        3PZ         0.00929
          Condensed to atoms (all electrons):
 Mulliken atomic charges:
              1
     1  Ti   0.996540
     2  O   -0.501275
     3  O   -0.692903
     4  H    0.332794
     5  O   -0.679741
     6  H    0.344034
     7  O   -0.602495
     8  H    0.398211
     9  H    0.404835
 Sum of Mulliken atomic charges =   0.00000
 Mulliken charges with hydrogens summed into heavy atoms:
              1
     1  Ti   0.996540
     2  O   -0.501275
     3  O   -0.360108
     5  O   -0.335707
     7  O    0.200550
 Sum of Mulliken charges with hydrogens summed into heavy atoms =   0.00000
 Electronic spatial extent (au):  <R**2>=            603.0743
 Charge=              0.0000 electrons
 Dipole moment (field-independent basis, Debye):
    X=              0.3095    Y=             -1.9213    Z=              3.9690  Tot=              4.4205
 Orbital energies and kinetic energies (alpha):
                                 1                 2
   1         O               -19.242499         29.116830
   2         O               -19.120917         29.120937
   3         O               -19.114815         29.121110
   4         O               -19.089072         29.125646
   5         O                -2.462253          1.496893
   6         O                -1.505318          2.354593
   7         O                -1.497356          2.396532
   8         O                -1.495730          2.424531
   9         O                -1.115799          2.639163
  10         O                -0.956618          2.722283
  11         O                -0.948202          2.756546
  12         O                -0.841358          3.124652
  13         O                -0.630982          1.842596
  14         O                -0.507722          2.173223
  15         O                -0.472671          2.092218
  16         O                -0.463625          2.101464
  17         O                -0.427802          2.288829
  18         O                -0.339234          2.338517
  19         O                -0.329751          2.305774
  20         O                -0.319559          2.232902
  21         O                -0.316997          2.272869
  22         O                -0.298272          2.210813
  23         O                -0.295456          2.607509
  24         O                -0.276183          2.334815
  25         V                -0.045664          1.528607
  26         V                -0.025369          3.209730
  27         V                -0.014053          3.712070
  28         V                 0.000092          2.046843
  29         V                 0.011239          1.359285
  30         V                 0.018607          0.661007
  31         V                 0.034659          1.544956
  32         V                 0.038705          1.855857
  33         V                 0.048560          1.100430
  34         V                 0.056187          3.061914
  35         V                 0.091295          1.088969
  36         V                 0.109788          0.764259
  37         V                 0.129409          0.648668
  38         V                 0.132607          0.636331
  39         V                 0.144206          0.734172
  40         V                 0.158610          0.865403
  41         V                 0.166975          0.911114
  42         V                 0.198080          1.077397
  43         V                 0.204307          1.232839
  44         V                 0.238710          1.183349
  45         V                 0.253721          1.408411
  46         V                 0.261110          1.704968
  47         V                 0.283411          1.295451
  48         V                 0.531409          2.258969
  49         V                 0.548273          2.334746
  50         V                 0.560497          2.340859
  51         V                 0.569954          2.172741
  52         V                 0.599336          2.373000
  53         V                 0.780340          2.257136
  54         V                 0.818035          2.431617
  55         V                 0.886983          3.218044
  56         V                 0.891912          2.609678
  57         V                 0.911031          2.889883
  58         V                 0.945308          3.343282
  59         V                 0.951761          2.965427
  60         V                 0.993688          3.513698
  61         V                 1.020269          3.293787
  62         V                 1.029585          3.418551
  63         V                 1.059799          3.374883
  64         V                 1.078167          3.353212
  65         V                 1.093852          3.420218
  66         V                 1.136462          3.369788
  67         V                 1.148312          3.253807
  68         V                 1.172040          2.995004
  69         V                 1.216782          3.075869
  70         V                 1.257478          2.964096
  71         V                 1.272065          2.751183
  72         V                 1.300268          2.505834
  73         V                 1.336909          2.916398
  74         V                 1.362436          2.851514
  75         V                 1.382296          3.062126
  76         V                 1.430341          2.990975
  77         V                 1.465985          2.997433
  78         V                 1.474960          2.770430
  79         V                 1.490112          2.941686
  80         V                 1.597400          2.945421
  81         V                 1.609833          3.146439
  82         V                 1.629996          2.901273
  83         V                 1.664723          2.716337
  84         V                 1.698135          3.142616
  85         V                 1.759203          3.388240
  86         V                 1.780988          3.089919
  87         V                 1.883254          3.473706
  88         V                 1.888697          2.988459
  89         V                 1.954585          3.686903
  90         V                 2.006991          3.166706
  91         V                 2.033964          3.514965
  92         V                 2.066330          3.558815
  93         V                 2.128653          3.352711
  94         V                 2.174388          3.363181
  95         V                 2.195573          3.192680
  96         V                 2.272707          3.554727
  97         V                 2.317228          3.795552
  98         V                 2.361469          3.602842
  99         V                 2.405589          3.819005
 100         V                 2.419255          3.863770
 101         V                 2.478099          3.951349
 102         V                 2.512167          3.867027
 103         V                 2.597387          3.719221
 104         V                 2.602228          3.728186
 105         V                 2.630396          3.952726
 106         V                 2.669363          3.647747
 107         V                 2.680232          3.663646
 108         V                 2.801910          4.420972
 109         V                 2.848888          4.396885
 110         V                 2.949137          4.184674
 111         V                 2.959677          4.327408
 112         V                 3.343991          5.403227
 113         V                 3.481021          5.572517
 114         V                 3.491987          5.526885
 115         V                 3.524298          5.565429
 116         V                24.389067         22.592374
 117         V                24.633980         22.799049
 118         V                24.697035         22.857304
 119         V                35.584461         11.848910
 Total kinetic energy from orbitals= 3.264024882846D+02

 Test job not archived.
 1\1\GINC-TITAN11\FOpt\RB3PW91\GenECP\H4O4Ti1\OHNISHI\26-Oct-2016\0\\#T
  B3PW91/GenECP SCFCon=7 SCFCyc=250 GFInput GFOldPrint Opt=(MaxCyc=60,C
 alcFC) NoSym Integral=(Grid=UltraFine) Pop=Regular Pseudo=Read IOp(1/3
 3=0,2/11=1,3/27=8,6/7=3)\\TiO2 1-4\\0,1\Ti,-0.1785483973,-0.0858334298
 ,0.2287634558\O,-0.3992876802,1.511077546,0.0267698013\O,1.5635237464,
 -0.6373332071,-0.046416377\H,1.8016857625,-1.5113177996,-0.3719711554\
 O,-1.5199918759,-1.1307523382,-0.4317681504\H,-2.3154326773,-0.8200046
 064,-0.8743400565\O,-0.0968944565,-0.0504476734,2.369008303\H,0.777769
 475,-0.3246932803,2.6765735769\H,-0.2084793367,0.8769660288,2.62197519
 23\\Version=AM64L-G09RevC.01\HF=-361.7293645\RMSD=3.750e-08\RMSF=1.830
 e-06\Dipole=0.1217721,-0.7559093,1.5615399\Quadrupole=-1.7541222,-5.87
 6261,7.6303833,-2.4954145,3.2282682,2.7921858\PG=C01 [X(H4O4Ti1)]\\@


 A warm smile is the universal language of kindness.
                             -- William Arthur Ward
 Job cpu time:  0 days  0 hours  5 minutes 46.0 seconds.
 File lengths (MBytes):  RWF=     21 Int=      0 D2E=      0 Chk=      2 Scr=      1
 Normal termination of Gaussian 09 at Wed Oct 26 17:36:56 2016.
real 364.65
user 321.37
sys 24.79
