 Running on titan12
 Entering Gaussian System, Link 0=g09
 Initial command:
 /opt/qcapps/g09/l1.exe /work/ohnishi/1477470877/Gau-21837.inp -scrdir=/work/ohnishi/1477470877/
 Entering Link 1 = /opt/qcapps/g09/l1.exe PID=     21838.
  
 Copyright (c) 1988,1990,1992,1993,1995,1998,2003,2009,2011,
            Gaussian, Inc.  All Rights Reserved.
  
 This is part of the Gaussian(R) 09 program.  It is based on
 the Gaussian(R) 03 system (copyright 2003, Gaussian, Inc.),
 the Gaussian(R) 98 system (copyright 1998, Gaussian, Inc.),
 the Gaussian(R) 94 system (copyright 1995, Gaussian, Inc.),
 the Gaussian 92(TM) system (copyright 1992, Gaussian, Inc.),
 the Gaussian 90(TM) system (copyright 1990, Gaussian, Inc.),
 the Gaussian 88(TM) system (copyright 1988, Gaussian, Inc.),
 the Gaussian 86(TM) system (copyright 1986, Carnegie Mellon
 University), and the Gaussian 82(TM) system (copyright 1983,
 Carnegie Mellon University). Gaussian is a federally registered
 trademark of Gaussian, Inc.
  
 This software contains proprietary and confidential information,
 including trade secrets, belonging to Gaussian, Inc.
  
 This software is provided under written license and may be
 used, copied, transmitted, or stored only in accord with that
 written license.
  
 The following legend is applicable only to US Government
 contracts under FAR:
  
                    RESTRICTED RIGHTS LEGEND
  
 Use, reproduction and disclosure by the US Government is
 subject to restrictions as set forth in subparagraphs (a)
 and (c) of the Commercial Computer Software - Restricted
 Rights clause in FAR 52.227-19.
  
 Gaussian, Inc.
 340 Quinnipiac St., Bldg. 40, Wallingford CT 06492
  
  
 ---------------------------------------------------------------
 Warning -- This program may not be used in any manner that
 competes with the business of Gaussian, Inc. or will provide
 assistance to any competitor of Gaussian, Inc.  The licensee
 of this program is prohibited from giving any competitor of
 Gaussian, Inc. access to this program.  By using this program,
 the user acknowledges that Gaussian, Inc. is engaged in the
 business of creating and licensing software in the field of
 computational chemistry and represents and warrants to the
 licensee that it is not a competitor of Gaussian, Inc. and that
 it will not use this program in any manner prohibited above.
 ---------------------------------------------------------------
  

 Cite this work as:
 Gaussian 09, Revision C.01,
 M. J. Frisch, G. W. Trucks, H. B. Schlegel, G. E. Scuseria, 
 M. A. Robb, J. R. Cheeseman, G. Scalmani, V. Barone, B. Mennucci, 
 G. A. Petersson, H. Nakatsuji, M. Caricato, X. Li, H. P. Hratchian, 
 A. F. Izmaylov, J. Bloino, G. Zheng, J. L. Sonnenberg, M. Hada, 
 M. Ehara, K. Toyota, R. Fukuda, J. Hasegawa, M. Ishida, T. Nakajima, 
 Y. Honda, O. Kitao, H. Nakai, T. Vreven, J. A. Montgomery, Jr., 
 J. E. Peralta, F. Ogliaro, M. Bearpark, J. J. Heyd, E. Brothers, 
 K. N. Kudin, V. N. Staroverov, T. Keith, R. Kobayashi, J. Normand, 
 K. Raghavachari, A. Rendell, J. C. Burant, S. S. Iyengar, J. Tomasi, 
 M. Cossi, N. Rega, J. M. Millam, M. Klene, J. E. Knox, J. B. Cross, 
 V. Bakken, C. Adamo, J. Jaramillo, R. Gomperts, R. E. Stratmann, 
 O. Yazyev, A. J. Austin, R. Cammi, C. Pomelli, J. W. Ochterski, 
 R. L. Martin, K. Morokuma, V. G. Zakrzewski, G. A. Voth, 
 P. Salvador, J. J. Dannenberg, S. Dapprich, A. D. Daniels, 
 O. Farkas, J. B. Foresman, J. V. Ortiz, J. Cioslowski, 
 and D. J. Fox, Gaussian, Inc., Wallingford CT, 2010.
 
 ******************************************
 Gaussian 09:  AM64L-G09RevC.01 23-Sep-2011
                26-Oct-2016 
 ******************************************
 %NprocShared=8
 Will use up to    8 processors via shared memory.
 %Mem=51491MB
 ----------------------------------------------------------------------
 #T B3PW91/GenECP SCFCon=7 SCFCyc=250 GFInput GFOldPrint Opt=(MaxCyc=60
 ,CalcFC) NoSym Integral=(Grid=UltraFine) Pop=Regular Pseudo=Read IOp(1
 /33=0,2/11=1,3/27=8,6/7=3)
 ----------------------------------------------------------------------
 ---------
 TiO2 1-5a
 ---------
 Charge =  0 Multiplicity = 1
 Symbolic Z-Matrix:
 Ti                    0.01874  -0.01027   0.0261 
 O                     1.05194   1.44363   0.8858 
 H                     0.60398   2.2811    0.74591 
 O                    -1.79329  -0.09088   0.8201 
 H                    -2.28147  -0.82025   0.43112 
 O                     0.94338  -1.73709   0.31512 
 H                     1.22804  -2.09349  -0.5296 
 O                    -0.12708   0.34326  -1.91662 
 H                    -0.5625    1.18725  -2.05695 
 

 GradGradGradGradGradGradGradGradGradGradGradGradGradGradGradGradGradGrad
 Initialization pass.
                           ----------------------------
                           !    Initial Parameters    !
                           ! (Angstroms and Degrees)  !
 --------------------------                            --------------------------
 ! Name  Definition              Value          Derivative Info.                !
 --------------------------------------------------------------------------------
 ! R1    R(1,2)                  1.98           calculate D2E/DX2 analytically  !
 ! R2    R(1,4)                  1.98           calculate D2E/DX2 analytically  !
 ! R3    R(1,6)                  1.98           calculate D2E/DX2 analytically  !
 ! R4    R(1,8)                  1.98           calculate D2E/DX2 analytically  !
 ! R5    R(2,3)                  0.96           calculate D2E/DX2 analytically  !
 ! R6    R(4,5)                  0.96           calculate D2E/DX2 analytically  !
 ! R7    R(6,7)                  0.96           calculate D2E/DX2 analytically  !
 ! R8    R(8,9)                  0.96           calculate D2E/DX2 analytically  !
 ! A1    A(2,1,4)              109.4712         calculate D2E/DX2 analytically  !
 ! A2    A(2,1,6)              109.4712         calculate D2E/DX2 analytically  !
 ! A3    A(2,1,8)              109.4713         calculate D2E/DX2 analytically  !
 ! A4    A(4,1,6)              109.4712         calculate D2E/DX2 analytically  !
 ! A5    A(4,1,8)              109.4712         calculate D2E/DX2 analytically  !
 ! A6    A(6,1,8)              109.4712         calculate D2E/DX2 analytically  !
 ! A7    A(1,2,3)              109.5            calculate D2E/DX2 analytically  !
 ! A8    A(1,4,5)              109.5012         calculate D2E/DX2 analytically  !
 ! A9    A(1,6,7)              109.5            calculate D2E/DX2 analytically  !
 ! A10   A(1,8,9)              109.5            calculate D2E/DX2 analytically  !
 ! D1    D(4,1,2,3)            -60.0002         calculate D2E/DX2 analytically  !
 ! D2    D(6,1,2,3)            179.9998         calculate D2E/DX2 analytically  !
 ! D3    D(8,1,2,3)             59.9998         calculate D2E/DX2 analytically  !
 ! D4    D(2,1,4,5)           -177.5191         calculate D2E/DX2 analytically  !
 ! D5    D(6,1,4,5)            -57.5191         calculate D2E/DX2 analytically  !
 ! D6    D(8,1,4,5)             62.4809         calculate D2E/DX2 analytically  !
 ! D7    D(2,1,6,7)           -115.9328         calculate D2E/DX2 analytically  !
 ! D8    D(4,1,6,7)            124.0672         calculate D2E/DX2 analytically  !
 ! D9    D(8,1,6,7)              4.0672         calculate D2E/DX2 analytically  !
 ! D10   D(2,1,8,9)            -59.0793         calculate D2E/DX2 analytically  !
 ! D11   D(4,1,8,9)             60.9207         calculate D2E/DX2 analytically  !
 ! D12   D(6,1,8,9)           -179.0793         calculate D2E/DX2 analytically  !
 --------------------------------------------------------------------------------
 Number of steps in this run=     60 maximum allowed number of steps=    100.
 GradGradGradGradGradGradGradGradGradGradGradGradGradGradGradGradGradGrad

                          Input orientation:                          
 ---------------------------------------------------------------------
 Center     Atomic      Atomic             Coordinates (Angstroms)
 Number     Number       Type             X           Y           Z
 ---------------------------------------------------------------------
      1         22           0        0.018740   -0.010271    0.026102
      2          8           0        1.051943    1.443625    0.885799
      3          1           0        0.603978    2.281098    0.745913
      4          8           0       -1.793293   -0.090884    0.820104
      5          1           0       -2.281471   -0.820250    0.431121
      6          8           0        0.943385   -1.737088    0.315121
      7          1           0        1.228042   -2.093486   -0.529599
      8          8           0       -0.127076    0.343264   -1.916615
      9          1           0       -0.562496    1.187252   -2.056950
 ---------------------------------------------------------------------
                    Distance matrix (angstroms):
                    1          2          3          4          5
     1  Ti   0.000000
     2  O    1.980000   0.000000
     3  H    2.472044   0.960000   0.000000
     4  O    1.980000   3.233326   3.373235   0.000000
     5  H    2.472059   4.055060   4.247737   0.960000   0.000000
     6  O    1.980000   3.233326   4.055440   3.233327   3.354660
     7  H    2.472044   3.813858   4.599279   3.867890   3.854970
     8  O    1.980000   3.233327   3.373232   3.233326   3.392204
     9  H    2.472044   3.366290   3.226949   3.380227   3.629798
                    6          7          8          9
     6  O    0.000000
     7  H    0.960000   0.000000
     8  O    3.233326   3.114146   0.000000
     9  H    4.055387   4.037581   0.960000   0.000000
 Symmetry turned off by external request.
 Framework group  C1[X(H4O4Ti)]
 Deg. of freedom    21
 Rotational constants (GHZ):      2.8068737      2.7415975      2.7102802
 ======================================================================================================
                                       Pseudopotential Parameters
 ======================================================================================================
  Center     Atomic      Valence      Angular      Power
  Number     Number     Electrons     Momentum     of R      Exponent        Coefficient   SO-Coeffient
 ======================================================================================================
    1         22           12
                                      F and up 
                                                     2        1.0000000        0.00000000    0.00000000
                                      S - F
                                                     2       13.0100000      158.24159300    0.00000000
                                                     2        5.8620000       17.51182400    0.00000000
                                      P - F
                                                     2       12.4600000       95.23512700    0.00000000
                                                     2        5.2170000       10.04785600    0.00000000
                                      D - F
                                                     2       15.3500000      -17.56886100    0.00000000
                                                     2        4.9800000       -0.58725600    0.00000000
    2          8
                                   No pseudopotential on this center.
    3          1
                                   No pseudopotential on this center.
    4          8
                                   No pseudopotential on this center.
    5          1
                                   No pseudopotential on this center.
    6          8
                                   No pseudopotential on this center.
    7          1
                                   No pseudopotential on this center.
    8          8
                                   No pseudopotential on this center.
    9          1
                                   No pseudopotential on this center.
 ======================================================================================================
 AO basis set in the form of general basis input (Overlap normalization):
      1 0
 S   3 1.00       0.000000000000
      0.1078036500D+02  0.1783892477D+01
      0.9717013000D+01 -0.2000689535D+01
      0.4507755000D+01 -0.7563332022D+00
 S   1 1.00       0.000000000000
      0.1246708000D+01  0.1000000000D+01
 S   1 1.00       0.000000000000
      0.5087070000D+00  0.1000000000D+01
 S   1 1.00       0.000000000000
      0.7343800000D-01  0.1000000000D+01
 S   1 1.00       0.000000000000
      0.3004800000D-01  0.1000000000D+01
 S   1 1.00       0.000000000000
      0.1000000000D-01  0.1000000000D+01
 P   2 1.00       0.000000000000
      0.1756638100D+02  0.8860101480D-01
      0.7705844000D+01 -0.1070746179D+01
 P   2 1.00       0.000000000000
      0.3329138000D+01  0.2001088977D+00
      0.1308104000D+01  0.8379855716D+00
 P   1 1.00       0.000000000000
      0.4544820000D+00  0.1000000000D+01
 P   1 1.00       0.000000000000
      0.7177200000D-01  0.1000000000D+01
 P   1 1.00       0.000000000000
      0.2378400000D-01  0.1000000000D+01
 D   4 1.00       0.000000000000
      0.1951919400D+02  0.3581400317D-01
      0.5864613000D+01  0.1723730152D+00
      0.1928038000D+01  0.4251360376D+00
      0.6065630000D+00  0.6025950533D+00
 D   1 1.00       0.000000000000
      0.1639610000D+00  0.1000000000D+01
 D   1 1.00       0.000000000000
      0.5000000000D-01  0.1000000000D+01
 F   1 1.00       0.000000000000
      0.5000000000D+00  0.1000000000D+01
 ****
      2 0
 S   6 1.00       0.000000000000
      0.5484671660D+04  0.1831074430D-02
      0.8252349460D+03  0.1395017220D-01
      0.1880469580D+03  0.6844507810D-01
      0.5296450000D+02  0.2327143360D+00
      0.1689757040D+02  0.4701928980D+00
      0.5799635340D+01  0.3585208530D+00
 SP   3 1.00       0.000000000000
      0.1553961625D+02 -0.1107775495D+00  0.7087426823D-01
      0.3599933586D+01 -0.1480262627D+00  0.3397528391D+00
      0.1013761750D+01  0.1130767015D+01  0.7271585773D+00
 SP   1 1.00       0.000000000000
      0.2700058226D+00  0.1000000000D+01  0.1000000000D+01
 D   1 1.00       0.000000000000
      0.8000000000D+00  0.1000000000D+01
 ****
      3 0
 S   3 1.00       0.000000000000
      0.1873113696D+02  0.3349460434D-01
      0.2825394365D+01  0.2347269535D+00
      0.6401216923D+00  0.8137573261D+00
 S   1 1.00       0.000000000000
      0.1612777588D+00  0.1000000000D+01
 P   1 1.00       0.000000000000
      0.1100000000D+01  0.1000000000D+01
 ****
      4 0
 S   6 1.00       0.000000000000
      0.5484671660D+04  0.1831074430D-02
      0.8252349460D+03  0.1395017220D-01
      0.1880469580D+03  0.6844507810D-01
      0.5296450000D+02  0.2327143360D+00
      0.1689757040D+02  0.4701928980D+00
      0.5799635340D+01  0.3585208530D+00
 SP   3 1.00       0.000000000000
      0.1553961625D+02 -0.1107775495D+00  0.7087426823D-01
      0.3599933586D+01 -0.1480262627D+00  0.3397528391D+00
      0.1013761750D+01  0.1130767015D+01  0.7271585773D+00
 SP   1 1.00       0.000000000000
      0.2700058226D+00  0.1000000000D+01  0.1000000000D+01
 D   1 1.00       0.000000000000
      0.8000000000D+00  0.1000000000D+01
 ****
      5 0
 S   3 1.00       0.000000000000
      0.1873113696D+02  0.3349460434D-01
      0.2825394365D+01  0.2347269535D+00
      0.6401216923D+00  0.8137573261D+00
 S   1 1.00       0.000000000000
      0.1612777588D+00  0.1000000000D+01
 P   1 1.00       0.000000000000
      0.1100000000D+01  0.1000000000D+01
 ****
      6 0
 S   6 1.00       0.000000000000
      0.5484671660D+04  0.1831074430D-02
      0.8252349460D+03  0.1395017220D-01
      0.1880469580D+03  0.6844507810D-01
      0.5296450000D+02  0.2327143360D+00
      0.1689757040D+02  0.4701928980D+00
      0.5799635340D+01  0.3585208530D+00
 SP   3 1.00       0.000000000000
      0.1553961625D+02 -0.1107775495D+00  0.7087426823D-01
      0.3599933586D+01 -0.1480262627D+00  0.3397528391D+00
      0.1013761750D+01  0.1130767015D+01  0.7271585773D+00
 SP   1 1.00       0.000000000000
      0.2700058226D+00  0.1000000000D+01  0.1000000000D+01
 D   1 1.00       0.000000000000
      0.8000000000D+00  0.1000000000D+01
 ****
      7 0
 S   3 1.00       0.000000000000
      0.1873113696D+02  0.3349460434D-01
      0.2825394365D+01  0.2347269535D+00
      0.6401216923D+00  0.8137573261D+00
 S   1 1.00       0.000000000000
      0.1612777588D+00  0.1000000000D+01
 P   1 1.00       0.000000000000
      0.1100000000D+01  0.1000000000D+01
 ****
      8 0
 S   6 1.00       0.000000000000
      0.5484671660D+04  0.1831074430D-02
      0.8252349460D+03  0.1395017220D-01
      0.1880469580D+03  0.6844507810D-01
      0.5296450000D+02  0.2327143360D+00
      0.1689757040D+02  0.4701928980D+00
      0.5799635340D+01  0.3585208530D+00
 SP   3 1.00       0.000000000000
      0.1553961625D+02 -0.1107775495D+00  0.7087426823D-01
      0.3599933586D+01 -0.1480262627D+00  0.3397528391D+00
      0.1013761750D+01  0.1130767015D+01  0.7271585773D+00
 SP   1 1.00       0.000000000000
      0.2700058226D+00  0.1000000000D+01  0.1000000000D+01
 D   1 1.00       0.000000000000
      0.8000000000D+00  0.1000000000D+01
 ****
      9 0
 S   3 1.00       0.000000000000
      0.1873113696D+02  0.3349460434D-01
      0.2825394365D+01  0.2347269535D+00
      0.6401216923D+00  0.8137573261D+00
 S   1 1.00       0.000000000000
      0.1612777588D+00  0.1000000000D+01
 P   1 1.00       0.000000000000
      0.1100000000D+01  0.1000000000D+01
 ****

 ***********************************************************************************************************************************
 *             ATOMIC CENTER             *        ATOMIC ORBITAL       *                     GAUSSIAN FUNCTIONS                    *
 ***********************************************************************************************************************************
 *                                       * FUNCTION    SHELL    SCALE  *                                                           *
 *    ATOM   X-COORD  Y-COORD  Z-COORD   *  NUMBER     TYPE     FACTOR *  EXPONENT    S-COEF      P-COEF      D-COEF      F-COEF   *
 ***********************************************************************************************************************************
 *     Ti     0.03541 -0.01941  0.04933                                                                                            *
+                                                1   S           1.00                                                               
+                                                                      0.107804D+020.756404D+010.000000D+000.000000D+000.000000D+00 
 *                                                                     0.971701D+01-.784765D+010.000000D+000.000000D+000.000000D+00*
 *                                                                     0.450776D+01-.166761D+010.000000D+000.000000D+000.000000D+00*
 *                                               2   S           1.00                                                              *
+                                                                      0.124671D+010.840879D+000.000000D+000.000000D+000.000000D+00 
 *                                               3   S           1.00                                                              *
+                                                                      0.508707D+000.429300D+000.000000D+000.000000D+000.000000D+00 
 *                                               4   S           1.00                                                              *
+                                                                      0.734380D-010.100543D+000.000000D+000.000000D+000.000000D+00 
 *                                               5   S           1.00                                                              *
+                                                                      0.300480D-010.514365D-010.000000D+000.000000D+000.000000D+00 
 *                                               6   S           1.00                                                              *
+                                                                      0.100000D-010.225377D-010.000000D+000.000000D+000.000000D+00 
 *                                           7-  9   P           1.00                                                              *
+                                                                      0.175664D+020.000000D+000.454184D+010.000000D+000.000000D+00 
 *                                                                     0.770584D+010.000000D+00-.195953D+020.000000D+000.000000D+00*
 *                                          10- 12   P           1.00                                                              *
+                                                                      0.332914D+010.000000D+000.128269D+010.000000D+000.000000D+00 
 *                                                                     0.130810D+010.000000D+000.167101D+010.000000D+000.000000D+00*
 *                                          13- 15   P           1.00                                                              *
+                                                                      0.454482D+000.000000D+000.531907D+000.000000D+000.000000D+00 
 *                                          16- 18   P           1.00                                                              *
+                                                                      0.717720D-010.000000D+000.529522D-010.000000D+000.000000D+00 
 *                                          19- 21   P           1.00                                                              *
+                                                                      0.237840D-010.000000D+000.133136D-010.000000D+000.000000D+00 
 *                                          22- 26   D           1.00                                                              *
+                                                                      0.195192D+020.000000D+000.000000D+000.106849D+020.000000D+00 
 *                                                                     0.586461D+010.000000D+000.000000D+000.627043D+010.000000D+00*
 *                                                                     0.192804D+010.000000D+000.000000D+000.220744D+010.000000D+00*
 *                                                                     0.606563D+000.000000D+000.000000D+000.413493D+000.000000D+00*
 *                                          27- 31   D           1.00                                                              *
+                                                                      0.163961D+000.000000D+000.000000D+000.695353D-010.000000D+00 
 *                                          32- 36   D           1.00                                                              *
+                                                                      0.500000D-010.000000D+000.000000D+000.870176D-020.000000D+00 
 *                                          31- 43   F           1.00                                                              *
+                                                                      0.500000D+000.000000D+000.000000D+000.000000D+000.309483D+00 
 *---------------------------------------------------------------------------------------------------------------------------------*
 *     O      1.98788  2.72806  1.67392                                                                                            *
+                                               44   S           1.00                                                               
+                                                                      0.548467D+040.831724D+000.000000D+000.000000D+000.000000D+00 
 *                                                                     0.825235D+030.153082D+010.000000D+000.000000D+000.000000D+00*
 *                                                                     0.188047D+030.247715D+010.000000D+000.000000D+000.000000D+00*
 *                                                                     0.529645D+020.325628D+010.000000D+000.000000D+000.000000D+00*
 *                                                                     0.168976D+020.279289D+010.000000D+000.000000D+000.000000D+00*
 *                                                                     0.579964D+010.954938D+000.000000D+000.000000D+000.000000D+00*
 *                                          45- 48   SP          1.00                                                              *
+                                                                      0.155396D+02-.617934D+000.311694D+010.000000D+000.000000D+00 
 *                                                                     0.359993D+01-.275721D+000.240144D+010.000000D+000.000000D+00*
 *                                                                     0.101376D+010.814208D+000.105436D+010.000000D+000.000000D+00*
 *                                          49- 52   SP          1.00                                                              *
+                                                                      0.270006D+000.266956D+000.277432D+000.000000D+000.000000D+00 
 *                                          53- 57   D           1.00                                                              *
+                                                                      0.800000D+000.000000D+000.000000D+000.111382D+010.000000D+00 
 *---------------------------------------------------------------------------------------------------------------------------------*
 *     H      1.14135  4.31065  1.40957                                                                                            *
+                                               58   S           1.00                                                               
+                                                                      0.187311D+020.214935D+000.000000D+000.000000D+000.000000D+00 
 *                                                                     0.282539D+010.364571D+000.000000D+000.000000D+000.000000D+00*
 *                                                                     0.640122D+000.415051D+000.000000D+000.000000D+000.000000D+00*
 *                                              59   S           1.00                                                              *
+                                                                      0.161278D+000.181381D+000.000000D+000.000000D+000.000000D+00 
 *                                          60- 62   P           1.00                                                              *
+                                                                      0.110000D+010.000000D+000.160576D+010.000000D+000.000000D+00 
 *---------------------------------------------------------------------------------------------------------------------------------*
 *     O     -3.38883 -0.17175  1.54977                                                                                            *
+                                               63   S           1.00                                                               
+                                                                      0.548467D+040.831724D+000.000000D+000.000000D+000.000000D+00 
 *                                                                     0.825235D+030.153082D+010.000000D+000.000000D+000.000000D+00*
 *                                                                     0.188047D+030.247715D+010.000000D+000.000000D+000.000000D+00*
 *                                                                     0.529645D+020.325628D+010.000000D+000.000000D+000.000000D+00*
 *                                                                     0.168976D+020.279289D+010.000000D+000.000000D+000.000000D+00*
 *                                                                     0.579964D+010.954938D+000.000000D+000.000000D+000.000000D+00*
 *                                          64- 67   SP          1.00                                                              *
+                                                                      0.155396D+02-.617934D+000.311694D+010.000000D+000.000000D+00 
 *                                                                     0.359993D+01-.275721D+000.240144D+010.000000D+000.000000D+00*
 *                                                                     0.101376D+010.814208D+000.105436D+010.000000D+000.000000D+00*
 *                                          68- 71   SP          1.00                                                              *
+                                                                      0.270006D+000.266956D+000.277432D+000.000000D+000.000000D+00 
 *                                          72- 76   D           1.00                                                              *
+                                                                      0.800000D+000.000000D+000.000000D+000.111382D+010.000000D+00 
 *---------------------------------------------------------------------------------------------------------------------------------*
 *     H     -4.31136 -1.55005  0.81470                                                                                            *
+                                               77   S           1.00                                                               
+                                                                      0.187311D+020.214935D+000.000000D+000.000000D+000.000000D+00 
 *                                                                     0.282539D+010.364571D+000.000000D+000.000000D+000.000000D+00*
 *                                                                     0.640122D+000.415051D+000.000000D+000.000000D+000.000000D+00*
 *                                              78   S           1.00                                                              *
+                                                                      0.161278D+000.181381D+000.000000D+000.000000D+000.000000D+00 
 *                                          79- 81   P           1.00                                                              *
+                                                                      0.110000D+010.000000D+000.160576D+010.000000D+000.000000D+00 
 *---------------------------------------------------------------------------------------------------------------------------------*
 *     O      1.78274 -3.28262  0.59549                                                                                            *
+                                               82   S           1.00                                                               
+                                                                      0.548467D+040.831724D+000.000000D+000.000000D+000.000000D+00 
 *                                                                     0.825235D+030.153082D+010.000000D+000.000000D+000.000000D+00*
 *                                                                     0.188047D+030.247715D+010.000000D+000.000000D+000.000000D+00*
 *                                                                     0.529645D+020.325628D+010.000000D+000.000000D+000.000000D+00*
 *                                                                     0.168976D+020.279289D+010.000000D+000.000000D+000.000000D+00*
 *                                                                     0.579964D+010.954938D+000.000000D+000.000000D+000.000000D+00*
 *                                          83- 86   SP          1.00                                                              *
+                                                                      0.155396D+02-.617934D+000.311694D+010.000000D+000.000000D+00 
 *                                                                     0.359993D+01-.275721D+000.240144D+010.000000D+000.000000D+00*
 *                                                                     0.101376D+010.814208D+000.105436D+010.000000D+000.000000D+00*
 *                                          87- 90   SP          1.00                                                              *
+                                                                      0.270006D+000.266956D+000.277432D+000.000000D+000.000000D+00 
 *                                          91- 95   D           1.00                                                              *
+                                                                      0.800000D+000.000000D+000.000000D+000.111382D+010.000000D+00 
 *---------------------------------------------------------------------------------------------------------------------------------*
 *     H      2.32066 -3.95611 -1.00080                                                                                            *
+                                               96   S           1.00                                                               
+                                                                      0.187311D+020.214935D+000.000000D+000.000000D+000.000000D+00 
 *                                                                     0.282539D+010.364571D+000.000000D+000.000000D+000.000000D+00*
 *                                                                     0.640122D+000.415051D+000.000000D+000.000000D+000.000000D+00*
 *                                              97   S           1.00                                                              *
+                                                                      0.161278D+000.181381D+000.000000D+000.000000D+000.000000D+00 
 *                                          98-100   P           1.00                                                              *
+                                                                      0.110000D+010.000000D+000.160576D+010.000000D+000.000000D+00 
 *---------------------------------------------------------------------------------------------------------------------------------*
 *     O     -0.24014  0.64868 -3.62188                                                                                            *
+                                              101   S           1.00                                                               
+                                                                      0.548467D+040.831724D+000.000000D+000.000000D+000.000000D+00 
 *                                                                     0.825235D+030.153082D+010.000000D+000.000000D+000.000000D+00*
 *                                                                     0.188047D+030.247715D+010.000000D+000.000000D+000.000000D+00*
 *                                                                     0.529645D+020.325628D+010.000000D+000.000000D+000.000000D+00*
 *                                                                     0.168976D+020.279289D+010.000000D+000.000000D+000.000000D+00*
 *                                                                     0.579964D+010.954938D+000.000000D+000.000000D+000.000000D+00*
 *                                         102-105   SP          1.00                                                              *
+                                                                      0.155396D+02-.617934D+000.311694D+010.000000D+000.000000D+00 
 *                                                                     0.359993D+01-.275721D+000.240144D+010.000000D+000.000000D+00*
 *                                                                     0.101376D+010.814208D+000.105436D+010.000000D+000.000000D+00*
 *                                         106-109   SP          1.00                                                              *
+                                                                      0.270006D+000.266956D+000.277432D+000.000000D+000.000000D+00 
 *                                         110-114   D           1.00                                                              *
+                                                                      0.800000D+000.000000D+000.000000D+000.111382D+010.000000D+00 
 *---------------------------------------------------------------------------------------------------------------------------------*
 *     H     -1.06296  2.24358 -3.88707                                                                                            *
+                                              115   S           1.00                                                               
+                                                                      0.187311D+020.214935D+000.000000D+000.000000D+000.000000D+00 
 *                                                                     0.282539D+010.364571D+000.000000D+000.000000D+000.000000D+00*
 *                                                                     0.640122D+000.415051D+000.000000D+000.000000D+000.000000D+00*
 *                                             116   S           1.00                                                              *
+                                                                      0.161278D+000.181381D+000.000000D+000.000000D+000.000000D+00 
 *                                         117-119   P           1.00                                                              *
+                                                                      0.110000D+010.000000D+000.160576D+010.000000D+000.000000D+00 
 ***********************************************************************************************************************************
   119 basis functions,   215 primitive gaussians,   129 cartesian basis functions
    24 alpha electrons       24 beta electrons
       nuclear repulsion energy       208.4327617936 Hartrees.
 NAtoms=    9 NActive=    9 NUniq=    9 SFac= 1.00D+00 NAtFMM=   60 NAOKFM=F Big=F
   1 Symmetry operations used in ECPInt.
 ECPInt:  NShTT=     946 NPrTT=    3836 LenC2=     941 LenP2D=    3001.
 LDataN:  DoStor=T MaxTD1= 6 Len=  172
 Harris functional with IExCor=  408 diagonalized for initial guess.
 ExpMin= 1.00D-02 ExpMax= 5.48D+03 ExpMxC= 8.25D+02 IAcc=3 IRadAn=         5 AccDes= 0.00D+00
 HarFok:  IExCor=  408 AccDes= 0.00D+00 IRadAn=         5 IDoV= 1
 ScaDFX=  1.000000  1.000000  1.000000  1.000000
 FoFCou: FMM=F IPFlag=           0 FMFlag=      100000 FMFlg1=           0
         NFxFlg=           0 DoJE=T BraDBF=F KetDBF=T FulRan=T
         Omega=  0.000000  0.000000  1.000000  0.000000  0.000000 ICntrl=     500 IOpCl=  0
         NMat0=    1 NMatS0=    1 NMatT0=    0 NMatD0=    1 NMtDS0=    0 NMtDT0=    0
         I1Cent=           4 NGrid=           0.
 Symmetry not used in FoFCou.
 EnCoef did     4 forward-backward iterations
 EnCoef did     6 forward-backward iterations
 EnCoef did     3 forward-backward iterations
 SCF Done:  E(RB3PW91) =  -361.707057432     A.U. after   15 cycles
             Convg  =    0.6049D-07             -V/T =  2.1118
 NROrb=    119 NOA=    24 NOB=    24 NVA=    95 NVB=    95
   1 Symmetry operations used in ECPInt.
 ECPInt:  NShTT=     946 NPrTT=    3836 LenC2=     941 LenP2D=    3001.
 LDataN:  DoStor=T MaxTD1= 7 Len=  274
 Symmetrizing basis deriv contribution to polar:
 IMax=3 JMax=2 DiffMx= 0.00D+00
 Calling FoFCou, ICntrl=  3107 FMM=F I1Cent=   0 AccDes= 0.00D+00.
 End of G2Drv Frequency-dependent properties file   721 does not exist.
 End of G2Drv Frequency-dependent properties file   722 does not exist.
          IDoAtm=111111111
 End of Minotr Frequency-dependent properties file   721 does not exist.
 End of Minotr Frequency-dependent properties file   722 does not exist.

 **********************************************************************

            Population analysis using the SCF density.

 **********************************************************************

 Alpha  occ. eigenvalues --  -19.16337 -19.15766 -19.15717 -19.15560  -2.56532
 Alpha  occ. eigenvalues --   -1.59301  -1.59130  -1.58827  -0.98992  -0.98326
 Alpha  occ. eigenvalues --   -0.98009  -0.97911  -0.49141  -0.48212  -0.47999
 Alpha  occ. eigenvalues --   -0.47611  -0.36884  -0.36402  -0.36146  -0.35745
 Alpha  occ. eigenvalues --   -0.34886  -0.33422  -0.32402  -0.31470
 Alpha virt. eigenvalues --   -0.12408  -0.11151  -0.08920  -0.08229  -0.07976
 Alpha virt. eigenvalues --   -0.03153   0.00511   0.02020   0.02726   0.03392
 Alpha virt. eigenvalues --    0.09932   0.10180   0.11750   0.13240   0.13608
 Alpha virt. eigenvalues --    0.15232   0.16473   0.16891   0.18856   0.21422
 Alpha virt. eigenvalues --    0.23567   0.23888   0.26430   0.50033   0.50886
 Alpha virt. eigenvalues --    0.51253   0.52715   0.53095   0.84737   0.85253
 Alpha virt. eigenvalues --    0.87496   0.88121   0.91619   0.92044   0.93418
 Alpha virt. eigenvalues --    0.97641   0.99544   1.01623   1.03540   1.05128
 Alpha virt. eigenvalues --    1.07570   1.10763   1.13847   1.17351   1.18815
 Alpha virt. eigenvalues --    1.19788   1.21073   1.23324   1.26505   1.28593
 Alpha virt. eigenvalues --    1.34691   1.37228   1.39011   1.41495   1.55550
 Alpha virt. eigenvalues --    1.56283   1.57480   1.58252   1.59507   1.62489
 Alpha virt. eigenvalues --    1.65891   1.67740   1.68326   1.81925   1.83330
 Alpha virt. eigenvalues --    1.85441   1.85588   2.02279   2.04851   2.06356
 Alpha virt. eigenvalues --    2.08432   2.31774   2.33077   2.34529   2.36200
 Alpha virt. eigenvalues --    2.45337   2.45734   2.46173   2.59533   2.63162
 Alpha virt. eigenvalues --    2.63433   2.64316   2.64452   2.66526   2.69252
 Alpha virt. eigenvalues --    2.72488   2.76419   3.46119   3.46839   3.48267
 Alpha virt. eigenvalues --    3.48590  24.34940  24.35078  24.35567  35.24461
     Molecular Orbital Coefficients:
                           1         2         3         4         5
                           O         O         O         O         O
     Eigenvalues --   -19.16337 -19.15766 -19.15717 -19.15560  -2.56532
   1 1   Ti 1S         -0.00010  -0.00010  -0.00010  -0.00010   0.40033
   2        2S         -0.00038  -0.00039  -0.00039  -0.00039   0.73369
   3        3S         -0.00023  -0.00021  -0.00018  -0.00019   0.50771
   4        4S          0.00474   0.00479   0.00470   0.00473   0.00853
   5        5S         -0.00144  -0.00165  -0.00188  -0.00181  -0.00405
   6        6S          0.00031   0.00035   0.00040   0.00039   0.00113
   7        7PX         0.00001  -0.00006  -0.00007   0.00013  -0.00005
   8        7PY        -0.00003   0.00012  -0.00010   0.00001   0.00003
   9        7PZ         0.00014  -0.00002  -0.00006  -0.00006  -0.00003
  10        8PX         0.00006  -0.00032  -0.00035   0.00062  -0.00034
  11        8PY        -0.00013   0.00059  -0.00050   0.00003   0.00020
  12        8PZ         0.00067  -0.00011  -0.00030  -0.00027  -0.00018
  13        9PX        -0.00011   0.00063   0.00070  -0.00122  -0.00023
  14        9PY         0.00026  -0.00115   0.00098  -0.00005   0.00014
  15        9PZ        -0.00131   0.00022   0.00058   0.00053  -0.00041
  16       10PX        -0.00007   0.00195   0.00205  -0.00414   0.00001
  17       10PY         0.00032  -0.00377   0.00344   0.00008   0.00002
  18       10PZ        -0.00442   0.00094   0.00213   0.00189   0.00000
  19       11PX         0.00013  -0.00045  -0.00050   0.00083   0.00001
  20       11PY        -0.00025   0.00080  -0.00068   0.00007   0.00000
  21       11PZ         0.00090  -0.00015  -0.00038  -0.00035   0.00000
  22       12D 0        0.00018  -0.00007  -0.00003  -0.00004   0.00081
  23       12D+1        0.00002   0.00003   0.00009  -0.00013   0.00007
  24       12D-1       -0.00004  -0.00006   0.00010   0.00001   0.00066
  25       12D+2        0.00000  -0.00010  -0.00003   0.00013  -0.00037
  26       12D-2        0.00000  -0.00014   0.00012  -0.00001  -0.00101
  27       13D 0        0.00222  -0.00134  -0.00066  -0.00075  -0.00042
  28       13D+1        0.00040   0.00020   0.00078  -0.00145   0.00003
  29       13D-1       -0.00095  -0.00033   0.00139  -0.00007  -0.00001
  30       13D+2       -0.00016  -0.00102  -0.00060   0.00177  -0.00022
  31       13D-2       -0.00017  -0.00157   0.00162   0.00034   0.00008
  32       14D 0        0.00070  -0.00031   0.00000  -0.00001   0.00010
  33       14D+1       -0.00007   0.00018   0.00035  -0.00049   0.00000
  34       14D-1        0.00004  -0.00034   0.00030  -0.00012   0.00002
  35       14D+2       -0.00002  -0.00024   0.00021   0.00062   0.00002
  36       14D-2       -0.00015  -0.00039   0.00078   0.00002  -0.00005
  37       15F 0       -0.00058  -0.00014  -0.00027  -0.00029   0.00024
  38       15F+1       -0.00014  -0.00017  -0.00004   0.00008   0.00007
  39       15F-1        0.00033   0.00033   0.00000   0.00001  -0.00009
  40       15F+2        0.00000  -0.00005  -0.00014   0.00040   0.00002
  41       15F-2        0.00001  -0.00007   0.00041   0.00011   0.00007
  42       15F+3       -0.00006  -0.00054  -0.00041  -0.00043   0.00015
  43       15F-3       -0.00001   0.00004   0.00007  -0.00008  -0.00018
  44 2   O  1S          0.00033   0.00965   0.99501  -0.00268  -0.00138
  45        2S          0.00005   0.00037   0.02859   0.00003   0.00187
  46        2PX        -0.00004  -0.00001  -0.00135  -0.00011  -0.00142
  47        2PY        -0.00002  -0.00008   0.00092  -0.00004  -0.00188
  48        2PZ        -0.00010  -0.00003  -0.00069   0.00001  -0.00116
  49        3S          0.00015  -0.00011  -0.01369  -0.00009   0.00314
  50        3PX         0.00014   0.00001   0.00161   0.00039  -0.00142
  51        3PY        -0.00003   0.00043   0.00213   0.00011  -0.00170
  52        3PZ         0.00026   0.00011   0.00134   0.00008  -0.00108
  53        4D 0       -0.00001   0.00002  -0.00037   0.00002  -0.00026
  54        4D+1       -0.00003  -0.00009  -0.00009   0.00002   0.00053
  55        4D-1        0.00004  -0.00005  -0.00045  -0.00009   0.00064
  56        4D+2        0.00006  -0.00003  -0.00041   0.00001  -0.00018
  57        4D-2       -0.00005  -0.00005  -0.00096   0.00001   0.00078
  58 3   H  1S          0.00004  -0.00017  -0.00111   0.00008   0.00004
  59        2S          0.00026   0.00015   0.00052   0.00018  -0.00006
  60        3PX        -0.00001  -0.00004  -0.00105  -0.00001   0.00012
  61        3PY        -0.00004   0.00006   0.00171  -0.00004  -0.00003
  62        3PZ        -0.00002  -0.00002  -0.00037  -0.00001   0.00007
  63 4   O  1S          0.00033   0.00213   0.00267   0.99506  -0.00138
  64        2S          0.00006   0.00017   0.00014   0.02857   0.00186
  65        2PX         0.00004   0.00010   0.00008  -0.00007   0.00238
  66        2PY        -0.00001  -0.00008   0.00003  -0.00134   0.00006
  67        2PZ        -0.00010  -0.00002   0.00001  -0.00113  -0.00109
  68        3S          0.00010  -0.00012   0.00009  -0.01359   0.00323
  69        3PX        -0.00004  -0.00035  -0.00040  -0.00276   0.00229
  70        3PY         0.00013   0.00024  -0.00021  -0.00008  -0.00002
  71        3PZ         0.00030   0.00014  -0.00006   0.00125  -0.00110
  72        4D 0       -0.00002   0.00006  -0.00001  -0.00016  -0.00026
  73        4D+1       -0.00003   0.00007   0.00008   0.00065  -0.00080
  74        4D-1       -0.00001   0.00003  -0.00005   0.00049   0.00003
  75        4D+2       -0.00007   0.00001  -0.00005  -0.00056   0.00084
  76        4D-2       -0.00001  -0.00002   0.00003   0.00066   0.00002
  77 5   H  1S          0.00008   0.00010  -0.00014  -0.00110   0.00004
  78        2S          0.00024  -0.00006  -0.00016   0.00035  -0.00001
  79        3PX         0.00004   0.00002  -0.00003  -0.00093  -0.00004
  80        3PY         0.00001   0.00000  -0.00007  -0.00159   0.00009
  81        3PZ         0.00000  -0.00001  -0.00003  -0.00091   0.00010
  82 6   O  1S          0.00001   0.99501  -0.00965  -0.00210  -0.00139
  83        2S          0.00000   0.02855  -0.00016   0.00003   0.00189
  84        2PX        -0.00005   0.00010   0.00003  -0.00007  -0.00123
  85        2PY         0.00010   0.00014   0.00009   0.00002   0.00229
  86        2PZ        -0.00005  -0.00176  -0.00001   0.00000  -0.00045
  87        3S          0.00037  -0.01355  -0.00011  -0.00003   0.00314
  88        3PX         0.00029   0.00137  -0.00015   0.00015  -0.00108
  89        3PY        -0.00051  -0.00259  -0.00016  -0.00002   0.00212
  90        3PZ        -0.00009   0.00053   0.00034   0.00016  -0.00056
  91        4D 0        0.00003   0.00081  -0.00002   0.00002  -0.00048
  92        4D+1        0.00000  -0.00051  -0.00005   0.00006   0.00017
  93        4D-1        0.00000   0.00070  -0.00002   0.00005  -0.00035
  94        4D+2        0.00006   0.00016  -0.00001   0.00002  -0.00057
  95        4D-2        0.00009   0.00011   0.00004   0.00001  -0.00083
  96 7   H  1S          0.00002  -0.00113   0.00001  -0.00005   0.00003
  97        2S         -0.00088   0.00056   0.00099   0.00071  -0.00008
  98        3PX         0.00004   0.00055  -0.00004  -0.00006   0.00001
  99        3PY        -0.00006  -0.00064   0.00010   0.00005  -0.00005
 100        3PZ        -0.00004  -0.00186   0.00005   0.00000   0.00012
 101 8   O  1S          0.99506  -0.00002  -0.00032  -0.00032  -0.00140
 102        2S          0.02858  -0.00003   0.00003   0.00005   0.00188
 103        2PX        -0.00075   0.00002   0.00004  -0.00008   0.00016
 104        2PY         0.00142  -0.00004   0.00006   0.00001  -0.00042
 105        2PZ         0.00064   0.00006   0.00008   0.00008   0.00262
 106        3S         -0.01364   0.00049   0.00014   0.00011   0.00341
 107        3PX        -0.00024  -0.00009  -0.00002   0.00025   0.00009
 108        3PY         0.00055   0.00020  -0.00030  -0.00015  -0.00031
 109        3PZ        -0.00297  -0.00013  -0.00017  -0.00022   0.00259
 110        4D 0       -0.00089  -0.00008   0.00000  -0.00002   0.00115
 111        4D+1        0.00009   0.00002  -0.00002  -0.00002   0.00009
 112        4D-1       -0.00014  -0.00003   0.00003   0.00002  -0.00027
 113        4D+2       -0.00046   0.00001   0.00007  -0.00006  -0.00004
 114        4D-2       -0.00065   0.00002  -0.00004   0.00004  -0.00005
 115 9   H  1S         -0.00115  -0.00015   0.00009   0.00011   0.00003
 116        2S          0.00050   0.00008   0.00025   0.00010  -0.00007
 117        3PX        -0.00094  -0.00003   0.00001   0.00001   0.00005
 118        3PY         0.00182   0.00005  -0.00003  -0.00002  -0.00009
 119        3PZ        -0.00016   0.00001   0.00004   0.00004  -0.00009
                           6         7         8         9        10
                           O         O         O         O         O
     Eigenvalues --    -1.59301  -1.59130  -1.58827  -0.98992  -0.98326
   1 1   Ti 1S          0.00011   0.00059   0.00007  -0.03232  -0.01926
   2        2S          0.00035   0.00125   0.00008  -0.07752  -0.04638
   3        3S         -0.00002   0.00083   0.00021  -0.02566  -0.01494
   4        4S         -0.00067  -0.00200  -0.00019   0.01898   0.01128
   5        5S          0.00027   0.00056   0.00015   0.00466   0.00344
   6        6S         -0.00008  -0.00017  -0.00003   0.00144   0.00073
   7        7PX        -0.03048   0.05261   0.08780   0.00040  -0.00276
   8        7PY         0.07130  -0.05473   0.05749  -0.00154   0.00280
   9        7PZ         0.07347   0.07513  -0.01953   0.00706  -0.01000
  10        8PX        -0.20816   0.35941   0.60005   0.00285  -0.01971
  11        8PY         0.48700  -0.37394   0.39296  -0.01101   0.01995
  12        8PZ         0.50181   0.51326  -0.13345   0.05033  -0.07128
  13        9PX        -0.11158   0.19270   0.32141   0.00132  -0.00787
  14        9PY         0.26151  -0.20079   0.21092  -0.00478   0.00812
  15        9PZ         0.26876   0.27483  -0.07137   0.02054  -0.02839
  16       10PX        -0.00164   0.00270   0.00564  -0.00045  -0.00099
  17       10PY         0.00483  -0.00367   0.00361   0.00156  -0.00026
  18       10PZ         0.00410   0.00471  -0.00159   0.00020  -0.00760
  19       11PX         0.00028  -0.00058  -0.00106  -0.00034   0.00184
  20       11PY        -0.00083   0.00064  -0.00063   0.00133  -0.00193
  21       11PZ        -0.00084  -0.00097   0.00030  -0.00401   0.00623
  22       12D 0       -0.00052   0.00044   0.00010   0.01891  -0.03617
  23       12D+1        0.00006   0.00001  -0.00032   0.00445  -0.00253
  24       12D-1       -0.00076   0.00007  -0.00019  -0.00834   0.01407
  25       12D+2       -0.00034   0.00050  -0.00009  -0.00276  -0.00582
  26       12D-2       -0.00072   0.00050  -0.00041  -0.00109  -0.00068
  27       13D 0       -0.00165  -0.00337   0.00120  -0.00182  -0.00152
  28       13D+1       -0.00035  -0.00071   0.00167   0.00150  -0.00160
  29       13D-1        0.00130   0.00151   0.00040  -0.00148   0.00361
  30       13D+2        0.00096  -0.00099  -0.00272  -0.00320  -0.00201
  31       13D-2        0.00229  -0.00073   0.00059  -0.00214   0.00031
  32       14D 0        0.00055   0.00102  -0.00017   0.00080  -0.00260
  33       14D+1        0.00032  -0.00018  -0.00058   0.00086  -0.00090
  34       14D-1       -0.00063  -0.00018  -0.00031  -0.00114   0.00209
  35       14D+2       -0.00047   0.00066   0.00035  -0.00172  -0.00149
  36       14D-2       -0.00057   0.00042  -0.00064  -0.00067  -0.00082
  37       15F 0        0.00008   0.00181  -0.00048  -0.00538  -0.00066
  38       15F+1        0.00102  -0.00009  -0.00031  -0.00173   0.00023
  39       15F-1       -0.00145   0.00014   0.00014   0.00408  -0.00016
  40       15F+2       -0.00008  -0.00070  -0.00194   0.00080  -0.00041
  41       15F-2        0.00110  -0.00037   0.00117   0.00196   0.00157
  42       15F+3       -0.00004  -0.00192   0.00041  -0.00364  -0.00637
  43       15F-3       -0.00029   0.00012  -0.00012  -0.00047  -0.00067
  44 2   O  1S         -0.00696  -0.00182  -0.00805  -0.06130  -0.11535
  45        2S          0.01490   0.00416   0.01733   0.13438   0.25341
  46        2PX        -0.00808  -0.00083  -0.00627  -0.02053  -0.03783
  47        2PY        -0.00684  -0.00361  -0.00844   0.01922   0.03908
  48        2PZ        -0.00389   0.00029  -0.00735  -0.00926  -0.01746
  49        3S          0.01112   0.00258   0.01322   0.13552   0.25643
  50        3PX        -0.00384   0.00056  -0.00144  -0.01239  -0.02256
  51        3PY        -0.00148  -0.00220  -0.00240   0.00172   0.00291
  52        3PZ        -0.00057   0.00118  -0.00329  -0.00775  -0.01284
  53        4D 0       -0.00062  -0.00059   0.00032  -0.00134  -0.00279
  54        4D+1        0.00054  -0.00057   0.00067   0.00162   0.00307
  55        4D-1       -0.00003  -0.00009   0.00094   0.00061   0.00141
  56        4D+2        0.00060  -0.00083  -0.00035  -0.00099  -0.00173
  57        4D-2        0.00093   0.00025   0.00021  -0.00006  -0.00005
  58 3   H  1S          0.00220   0.00009   0.00225   0.04863   0.09288
  59        2S         -0.00066   0.00036  -0.00072   0.00199   0.00778
  60        3PX        -0.00001   0.00000  -0.00004   0.00325   0.00625
  61        3PY        -0.00080   0.00012  -0.00069  -0.00611  -0.01185
  62        3PZ        -0.00016   0.00001  -0.00011   0.00102   0.00178
  63 4   O  1S         -0.00530   0.00162   0.00926  -0.05281  -0.07975
  64        2S          0.01159  -0.00342  -0.01990   0.11547   0.17483
  65        2PX         0.00800  -0.00127  -0.01288  -0.00473  -0.00922
  66        2PY         0.00144  -0.00138   0.00179  -0.01950  -0.02992
  67        2PZ        -0.00265   0.00330   0.00701  -0.01459  -0.02254
  68        3S          0.00844  -0.00292  -0.01458   0.11736   0.17803
  69        3PX         0.00266  -0.00001  -0.00353   0.00539   0.00697
  70        3PY         0.00138  -0.00125   0.00190  -0.00782  -0.01169
  71        3PZ        -0.00005   0.00225   0.00264  -0.00934  -0.01267
  72        4D 0       -0.00051  -0.00069   0.00007  -0.00061  -0.00125
  73        4D+1       -0.00002   0.00083   0.00097  -0.00084  -0.00140
  74        4D-1       -0.00031   0.00023  -0.00047   0.00132   0.00192
  75        4D+2        0.00062   0.00025  -0.00064   0.00083   0.00108
  76        4D-2        0.00069  -0.00059   0.00067   0.00096   0.00150
  77 5   H  1S          0.00108  -0.00052  -0.00292   0.04110   0.06340
  78        2S         -0.00020  -0.00014   0.00121   0.00401   0.00552
  79        3PX         0.00019  -0.00018  -0.00088   0.00308   0.00470
  80        3PY         0.00009  -0.00009  -0.00052   0.00461   0.00710
  81        3PZ        -0.00001  -0.00002  -0.00001   0.00245   0.00363
  82 6   O  1S          0.00677  -0.00831   0.00118  -0.06466  -0.12764
  83        2S         -0.01438   0.01803  -0.00256   0.14244   0.28006
  84        2PX         0.00485  -0.00558   0.00331   0.00402   0.00967
  85        2PY        -0.00881   0.01176  -0.00035  -0.00211  -0.00714
  86        2PZ         0.00455  -0.00173   0.00007  -0.03025  -0.06196
  87        3S         -0.01118   0.01326  -0.00205   0.13995   0.28578
  88        3PX         0.00143  -0.00147   0.00257  -0.00173  -0.00399
  89        3PY        -0.00241   0.00392   0.00045   0.00618   0.01286
  90        3PZ         0.00328   0.00038  -0.00032  -0.01437  -0.02574
  91        4D 0       -0.00010  -0.00053   0.00011   0.00098   0.00123
  92        4D+1       -0.00060  -0.00017  -0.00022  -0.00049  -0.00075
  93        4D-1        0.00113   0.00018  -0.00025   0.00017   0.00013
  94        4D+2        0.00024  -0.00071  -0.00090  -0.00123  -0.00252
  95        4D-2        0.00050  -0.00060   0.00082  -0.00202  -0.00412
  96 7   H  1S         -0.00229   0.00213  -0.00022   0.05067   0.10274
  97        2S          0.00104  -0.00025  -0.00025   0.00423   0.00495
  98        3PX         0.00040  -0.00030   0.00000  -0.00227  -0.00447
  99        3PY        -0.00065   0.00047  -0.00005   0.00283   0.00548
 100        3PZ        -0.00039   0.00028  -0.00002   0.00649   0.01313
 101 8   O  1S          0.00566   0.00904  -0.00237  -0.18939   0.10420
 102        2S         -0.01249  -0.01950   0.00516   0.41539  -0.22867
 103        2PX        -0.00110   0.00079   0.00253  -0.04203   0.02370
 104        2PY         0.00283   0.00041   0.00108   0.07979  -0.04527
 105        2PZ        -0.00851  -0.01439   0.00379   0.01488  -0.00617
 106        3S         -0.00854  -0.01388   0.00352   0.42301  -0.23550
 107        3PX        -0.00070   0.00111   0.00183  -0.01435   0.00766
 108        3PY         0.00167  -0.00093   0.00128   0.02574  -0.01338
 109        3PZ        -0.00210  -0.00423   0.00103   0.03170  -0.01611
 110        4D 0       -0.00031  -0.00123   0.00031   0.00435  -0.00243
 111        4D+1       -0.00038   0.00052   0.00103   0.00065  -0.00040
 112        4D-1        0.00092  -0.00038   0.00059  -0.00183   0.00113
 113        4D+2        0.00013   0.00004   0.00009  -0.00365   0.00198
 114        4D-2        0.00013   0.00003  -0.00012  -0.00506   0.00273
 115 9   H  1S         -0.00113  -0.00295   0.00073   0.15146  -0.08444
 116        2S          0.00009   0.00103  -0.00052   0.01157  -0.00876
 117        3PX        -0.00008  -0.00034   0.00006   0.00999  -0.00558
 118        3PY         0.00015   0.00068  -0.00015  -0.01924   0.01072
 119        3PZ        -0.00019  -0.00070   0.00015   0.00335  -0.00192
                          11        12        13        14        15
                           O         O         O         O         O
     Eigenvalues --    -0.98009  -0.97911  -0.49141  -0.48212  -0.47999
   1 1   Ti 1S          0.00159  -0.00415   0.02748   0.00552  -0.05044
   2        2S          0.00379  -0.00997   0.07045   0.01464  -0.12968
   3        3S          0.00143  -0.00326   0.02603   0.00363  -0.04772
   4        4S         -0.00126   0.00268  -0.09133  -0.01647   0.17148
   5        5S         -0.00052  -0.00009   0.01650   0.00690  -0.03240
   6        6S         -0.00002   0.00035  -0.00380  -0.00166   0.00735
   7        7PX        -0.00143   0.01273   0.00015   0.01181  -0.00103
   8        7PY         0.01298   0.00224   0.00285  -0.00007   0.00445
   9        7PZ         0.00322  -0.00204  -0.00878   0.00055  -0.00693
  10        8PX        -0.01018   0.09080   0.00103   0.08742  -0.00762
  11        8PY         0.09261   0.01600   0.02128  -0.00031   0.03306
  12        8PZ         0.02297  -0.01455  -0.06486   0.00408  -0.05114
  13        9PX        -0.00408   0.03643   0.00097   0.01767  -0.00119
  14        9PY         0.03722   0.00664   0.00258  -0.00155   0.00620
  15        9PZ         0.00905  -0.00579  -0.01401   0.00070  -0.01066
  16       10PX         0.00011   0.00414  -0.00425  -0.04441   0.00101
  17       10PY         0.00466  -0.00046   0.00250   0.00936  -0.01384
  18       10PZ        -0.00037   0.00030   0.04092  -0.00371   0.03589
  19       11PX         0.00101  -0.00788  -0.00282   0.00118   0.00155
  20       11PY        -0.00799  -0.00162   0.00409   0.00484   0.00163
  21       11PZ        -0.00158   0.00115  -0.00140  -0.00015   0.00329
  22       12D 0       -0.00529  -0.00342  -0.13335   0.01131  -0.02579
  23       12D+1       -0.00402  -0.02605   0.01645  -0.13648  -0.00221
  24       12D-1       -0.01827  -0.00848  -0.05065  -0.01911  -0.04250
  25       12D+2       -0.00833   0.03332  -0.03851   0.05603   0.00244
  26       12D-2       -0.03682   0.00061  -0.04958  -0.07657  -0.06056
  27       13D 0        0.00170  -0.00124  -0.04298   0.00230   0.00096
  28       13D+1       -0.00130   0.00147   0.01391  -0.04506   0.00127
  29       13D-1        0.00181  -0.00002  -0.03145  -0.00195  -0.02117
  30       13D+2        0.00237   0.00311  -0.01883   0.00143   0.00354
  31       13D-2       -0.00062   0.00413  -0.01782  -0.03942  -0.02079
  32       14D 0        0.00059  -0.00086  -0.01426   0.00237  -0.00391
  33       14D+1       -0.00055  -0.00104   0.00394  -0.01419  -0.00017
  34       14D-1       -0.00023  -0.00048  -0.00939   0.00077  -0.00411
  35       14D+2        0.00001   0.00342  -0.00453  -0.00004   0.00148
  36       14D-2       -0.00232   0.00171  -0.00178  -0.01030  -0.00430
  37       15F 0        0.00188  -0.00088   0.01163   0.00131  -0.01203
  38       15F+1       -0.00111   0.00202  -0.00192  -0.00271  -0.00282
  39       15F-1        0.00253  -0.00030   0.00269  -0.00209   0.00354
  40       15F+2        0.00104   0.00364  -0.00223   0.00565   0.00116
  41       15F-2       -0.00224  -0.00033  -0.00293  -0.00667  -0.00533
  42       15F+3       -0.00041  -0.00070   0.00062  -0.00049  -0.00819
  43       15F-3        0.00076  -0.00132  -0.00195  -0.00169   0.00541
  44 2   O  1S          0.14876   0.08695   0.01452   0.04094  -0.01409
  45        2S         -0.32677  -0.19049  -0.03238  -0.09072   0.02902
  46        2PX         0.04763   0.02880  -0.03140  -0.10629   0.03894
  47        2PY        -0.05123  -0.03089   0.12495   0.32919  -0.13485
  48        2PZ         0.02124   0.01185  -0.01538  -0.00410   0.00913
  49        3S         -0.33335  -0.19751  -0.05582  -0.16125   0.06243
  50        3PX         0.03060   0.01611  -0.01736  -0.05258   0.01638
  51        3PY        -0.00574  -0.00182   0.06854   0.18309  -0.07841
  52        3PZ         0.01722   0.01127  -0.00723   0.00039   0.00239
  53        4D 0        0.00361   0.00207  -0.00088  -0.00378   0.00103
  54        4D+1       -0.00389  -0.00249   0.00123   0.00040  -0.00075
  55        4D-1       -0.00177  -0.00104  -0.00263  -0.00799   0.00279
  56        4D+2        0.00238   0.00150  -0.00032   0.00038   0.00057
  57        4D-2       -0.00016  -0.00019  -0.00558  -0.01473   0.00538
  58 3   H  1S         -0.11939  -0.07082   0.06658   0.17694  -0.07263
  59        2S         -0.01072  -0.00566   0.03643   0.11094  -0.04621
  60        3PX        -0.00800  -0.00463   0.00212   0.00481  -0.00250
  61        3PY         0.01514   0.00896  -0.00245  -0.00725   0.00322
  62        3PZ        -0.00235  -0.00150   0.00006   0.00205  -0.00070
  63 4   O  1S          0.02800  -0.19207   0.00658  -0.04364  -0.02868
  64        2S         -0.06135   0.42161  -0.01522   0.09445   0.06184
  65        2PX         0.00359  -0.02438  -0.05471   0.23384   0.18630
  66        2PY         0.01156  -0.07385  -0.03985   0.25786   0.18479
  67        2PZ         0.00775  -0.05238  -0.02328   0.10444   0.07143
  68        3S         -0.06332   0.43061  -0.02272   0.17963   0.11732
  69        3PX        -0.00288   0.01418  -0.02628   0.13932   0.10919
  70        3PY         0.00236  -0.02617  -0.02084   0.14048   0.10116
  71        3PZ         0.00423  -0.03136  -0.01230   0.05122   0.03600
  72        4D 0        0.00035  -0.00281   0.00039  -0.00142  -0.00069
  73        4D+1        0.00051  -0.00324   0.00094  -0.00816  -0.00606
  74        4D-1       -0.00075   0.00437   0.00143  -0.01023  -0.00727
  75        4D+2       -0.00066   0.00304  -0.00175   0.01156   0.00751
  76        4D-2       -0.00058   0.00373   0.00128  -0.00415  -0.00422
  77 5   H  1S         -0.02320   0.15426   0.03543  -0.18586  -0.13902
  78        2S         -0.00161   0.01214   0.02243  -0.11307  -0.08963
  79        3PX        -0.00178   0.01143   0.00047  -0.00413  -0.00271
  80        3PY        -0.00254   0.01700   0.00201  -0.00744  -0.00602
  81        3PZ        -0.00137   0.00901   0.00089  -0.00435  -0.00363
  82 6   O  1S         -0.15481   0.04870  -0.02002   0.01524  -0.04668
  83        2S          0.33947  -0.10719   0.04617  -0.03132   0.10125
  84        2PX         0.01338  -0.00348  -0.05809   0.04541  -0.15133
  85        2PY        -0.00980   0.00353   0.07742  -0.05199   0.23534
  86        2PZ        -0.07437   0.02346   0.11567  -0.10058   0.31637
  87        3S          0.34962  -0.10847   0.07249  -0.06896   0.19085
  88        3PX        -0.00661   0.00039  -0.03091   0.02988  -0.08831
  89        3PY         0.01497  -0.00413   0.04129  -0.03739   0.13928
  90        3PZ        -0.03280   0.01063   0.06167  -0.05362   0.17028
  91        4D 0        0.00170  -0.00065  -0.00730   0.00576  -0.01738
  92        4D+1       -0.00108   0.00016   0.00209  -0.00194   0.00574
  93        4D-1        0.00027  -0.00023  -0.00203   0.00079  -0.00678
  94        4D+2       -0.00320   0.00099  -0.00143   0.00098  -0.00423
  95        4D-2       -0.00531   0.00156  -0.00220   0.00166  -0.00434
  96 7   H  1S          0.12400  -0.03905  -0.07779   0.06293  -0.21528
  97        2S          0.01126  -0.00235  -0.04555   0.03470  -0.13531
  98        3PX        -0.00533   0.00171   0.00104  -0.00078   0.00302
  99        3PY         0.00677  -0.00205  -0.00140   0.00126  -0.00252
 100        3PZ         0.01586  -0.00495  -0.00295   0.00274  -0.01086
 101 8   O  1S         -0.00325   0.00889   0.05437  -0.00043  -0.00393
 102        2S          0.00748  -0.01964  -0.11830   0.00064   0.00900
 103        2PX        -0.00067   0.00259  -0.19907   0.01936   0.02623
 104        2PY         0.00179  -0.00383   0.39543   0.00587  -0.04566
 105        2PZ         0.00017  -0.00042  -0.15904  -0.00273   0.04661
 106        3S          0.00598  -0.01979  -0.21980   0.00293   0.01406
 107        3PX        -0.00044   0.00035  -0.10896   0.00964   0.01439
 108        3PY        -0.00011  -0.00154   0.21723   0.00434  -0.02518
 109        3PZ         0.00041  -0.00087  -0.10022  -0.00112   0.02196
 110        4D 0        0.00019  -0.00019  -0.01627  -0.00012   0.00209
 111        4D+1       -0.00007  -0.00009  -0.00260   0.00132  -0.00036
 112        4D-1        0.00002   0.00009   0.00603   0.00015   0.00094
 113        4D+2       -0.00005   0.00039  -0.00778  -0.00033   0.00117
 114        4D-2       -0.00022   0.00013  -0.01140  -0.00014   0.00166
 115 9   H  1S          0.00297  -0.00752   0.24102  -0.00053  -0.03295
 116        2S          0.00067   0.00074   0.14921  -0.00362  -0.02237
 117        3PX         0.00026  -0.00040   0.00598   0.00053  -0.00091
 118        3PY        -0.00043   0.00092  -0.01108   0.00072   0.00186
 119        3PZ         0.00014  -0.00015   0.00059  -0.00006   0.00086
                          16        17        18        19        20
                           O         O         O         O         O
     Eigenvalues --    -0.47611  -0.36884  -0.36402  -0.36146  -0.35745
   1 1   Ti 1S          0.00684   0.01985  -0.03018   0.04941  -0.04071
   2        2S          0.01782   0.04967  -0.07524   0.12359  -0.10188
   3        3S          0.00572   0.02661  -0.04095   0.06602  -0.05412
   4        4S         -0.02267  -0.09488   0.14212  -0.23151   0.19310
   5        5S          0.00523   0.03626  -0.05764   0.09565  -0.09025
   6        6S         -0.00131  -0.00581   0.00790  -0.01327   0.01315
   7        7PX        -0.00148   0.00585  -0.00450  -0.00506   0.00323
   8        7PY         0.00908  -0.00390  -0.00730   0.00572   0.00705
   9        7PZ         0.00906   0.00719   0.00668  -0.00054   0.00726
  10        8PX        -0.01105   0.04380  -0.03383  -0.03780   0.02414
  11        8PY         0.06720  -0.02916  -0.05442   0.04278   0.05284
  12        8PZ         0.06709   0.05391   0.04989  -0.00395   0.05406
  13        9PX        -0.00199   0.00984  -0.00725  -0.00851   0.00659
  14        9PY         0.01390  -0.00711  -0.01395   0.01062   0.01170
  15        9PZ         0.01395   0.01121   0.01134  -0.00170   0.01222
  16       10PX         0.00589  -0.00923  -0.02346   0.01247  -0.02142
  17       10PY        -0.04152   0.03026   0.07009  -0.03064  -0.01212
  18       10PZ        -0.03949   0.02099  -0.01255   0.02734  -0.07904
  19       11PX        -0.00281   0.02234  -0.02868  -0.01404   0.01172
  20       11PY         0.00062  -0.00680  -0.00859   0.01604   0.02698
  21       11PZ         0.00147   0.03194   0.02663   0.00590   0.00802
  22       12D 0        0.05393   0.23349   0.13950   0.03888  -0.07427
  23       12D+1        0.01766  -0.00054   0.15081   0.10144   0.01378
  24       12D-1       -0.08513  -0.18105   0.02427   0.05617  -0.06933
  25       12D+2       -0.08426   0.14470  -0.19397  -0.00610   0.11732
  26       12D-2       -0.07845   0.02821  -0.03840  -0.20614  -0.17999
  27       13D 0        0.01036   0.06358   0.03237   0.03116  -0.03366
  28       13D+1        0.00671   0.01511   0.04329   0.02839   0.01808
  29       13D-1       -0.02285  -0.07888   0.00549   0.03555  -0.01041
  30       13D+2       -0.03159   0.05604  -0.07598   0.02895   0.05391
  31       13D-2       -0.01248   0.01260  -0.03878  -0.08090  -0.05625
  32       14D 0        0.00470  -0.02946  -0.01886   0.01469  -0.00782
  33       14D+1        0.00044   0.01422  -0.01175   0.00572   0.02816
  34       14D-1       -0.00866  -0.01071   0.00642   0.03089   0.01420
  35       14D+2       -0.00857  -0.00088   0.00115   0.04185   0.02382
  36       14D-2       -0.00648   0.00822  -0.01704  -0.01212   0.00871
  37       15F 0       -0.00322  -0.00230  -0.00317   0.00723  -0.00024
  38       15F+1        0.00068  -0.00069  -0.00788  -0.00152  -0.00099
  39       15F-1       -0.00058   0.00346   0.00910  -0.00122   0.00652
  40       15F+2       -0.00849   0.00534  -0.00491  -0.00271   0.00504
  41       15F-2       -0.00813  -0.00209   0.00371  -0.00592   0.00152
  42       15F+3        0.00202   0.01107  -0.00146   0.00851  -0.00991
  43       15F-3       -0.00640  -0.00046   0.00270   0.00319  -0.00282
  44 2   O  1S          0.03987  -0.01813   0.01427  -0.02108  -0.00679
  45        2S         -0.08533   0.04656  -0.03885   0.05191   0.01971
  46        2PX        -0.10221   0.23680  -0.24204   0.14245   0.15251
  47        2PY         0.32356   0.09692  -0.10540   0.05990   0.06265
  48        2PZ        -0.01120   0.13831  -0.02579   0.29772   0.03854
  49        3S         -0.16955   0.06470  -0.04241   0.08393   0.01510
  50        3PX        -0.04741   0.15893  -0.16904   0.10088   0.10776
  51        3PY         0.18514   0.07554  -0.07750   0.04010   0.04780
  52        3PZ         0.00066   0.09722  -0.02287   0.20052   0.02973
  53        4D 0       -0.00336   0.00104  -0.00389  -0.00519   0.00203
  54        4D+1        0.00089  -0.01011   0.00612  -0.01234  -0.00493
  55        4D-1       -0.00829  -0.00181   0.00093   0.00102  -0.00184
  56        4D+2       -0.00033  -0.00991   0.00926  -0.00512  -0.00561
  57        4D-2       -0.01447  -0.00235   0.00252  -0.00016  -0.00288
  58 3   H  1S          0.17411  -0.01307   0.00597  -0.02116  -0.00512
  59        2S          0.11726  -0.01570  -0.01435   0.00640   0.00649
  60        3PX         0.00498   0.00697  -0.00832   0.00373   0.00425
  61        3PY        -0.00751   0.00518  -0.00346   0.00344   0.00263
  62        3PZ         0.00168   0.00405  -0.00075   0.01038   0.00073
  63 4   O  1S          0.02750  -0.00076  -0.01563  -0.02163   0.02035
  64        2S         -0.06009   0.00187   0.04067   0.05723  -0.05026
  65        2PX        -0.16725   0.02919  -0.20182  -0.28229   0.09645
  66        2PY        -0.17152  -0.03828   0.12568   0.19077   0.01456
  67        2PZ        -0.05342   0.03277   0.15327   0.12861  -0.31470
  68        3S         -0.11119   0.00393   0.05157   0.06970  -0.07952
  69        3PX        -0.09643   0.01932  -0.14221  -0.20799   0.06888
  70        3PY        -0.09384  -0.02414   0.07840   0.12778   0.00583
  71        3PZ        -0.02601   0.02406   0.10621   0.09159  -0.21732
  72        4D 0       -0.00026  -0.00161  -0.00109   0.00063   0.00999
  73        4D+1        0.00633  -0.00013   0.00909   0.00949  -0.00599
  74        4D-1        0.00605  -0.00021  -0.00667  -0.00881   0.00661
  75        4D+2       -0.00739   0.00079  -0.00077   0.00092   0.00091
  76        4D-2        0.00352  -0.00161   0.00637   0.01049  -0.00114
  77 5   H  1S          0.12500  -0.00058  -0.01956  -0.01594   0.02677
  78        2S          0.08284  -0.00746  -0.00990  -0.01358   0.00985
  79        3PX         0.00253   0.00085  -0.00776  -0.01065   0.00432
  80        3PY         0.00510  -0.00096   0.00212   0.00500   0.00279
  81        3PZ         0.00349   0.00143   0.00354   0.00327  -0.00991
  82 6   O  1S         -0.02758  -0.01865   0.01266  -0.00098   0.02481
  83        2S          0.05992   0.04977  -0.02817  -0.00120  -0.06315
  84        2PX        -0.10302   0.18476  -0.08428   0.10393   0.03219
  85        2PY         0.12109  -0.20826   0.04136   0.11124   0.31733
  86        2PZ         0.17800   0.19069  -0.10547  -0.00862  -0.21442
  87        3S          0.11337   0.05982  -0.06087   0.01863  -0.09072
  88        3PX        -0.05915   0.12816  -0.05475   0.06242   0.01590
  89        3PY         0.07269  -0.14928   0.02168   0.07816   0.22750
  90        3PZ         0.09491   0.12893  -0.07169  -0.00435  -0.14796
  91        4D 0       -0.00951  -0.00501   0.00464  -0.00092   0.00593
  92        4D+1        0.00362  -0.00906   0.00346  -0.00291  -0.00057
  93        4D-1       -0.00345   0.01217  -0.00145  -0.00448  -0.01441
  94        4D+2       -0.00196   0.00207   0.00045  -0.00376  -0.00579
  95        4D-2       -0.00382   0.00416  -0.00158  -0.00035  -0.00083
  96 7   H  1S         -0.12045  -0.00642   0.02392  -0.00287   0.03054
  97        2S         -0.08079   0.01458   0.01784  -0.00270   0.02647
  98        3PX         0.00111   0.00648  -0.00374   0.00408   0.00027
  99        3PY        -0.00192  -0.00681   0.00229   0.00353   0.01213
 100        3PZ        -0.00635   0.00554  -0.00161  -0.00020  -0.00395
 101 8   O  1S         -0.02443   0.01890   0.02548  -0.01267   0.01308
 102        2S          0.05189  -0.05059  -0.06561   0.03296  -0.03274
 103        2PX         0.09111  -0.02630  -0.13430  -0.11099  -0.11047
 104        2PY        -0.17393   0.11355   0.07608  -0.11879   0.00248
 105        2PZ         0.08701   0.31709   0.36477  -0.17422   0.18953
 106        3S          0.10558  -0.05784  -0.09015   0.04391  -0.05355
 107        3PX         0.05094  -0.01423  -0.09304  -0.07621  -0.07650
 108        3PY        -0.09790   0.07012   0.05072  -0.08292   0.00543
 109        3PZ         0.05709   0.22561   0.26395  -0.12713   0.14313
 110        4D 0        0.00862   0.01010   0.00936  -0.00342   0.00438
 111        4D+1        0.00072  -0.00439  -0.00872  -0.00143  -0.00622
 112        4D-1       -0.00134   0.00994   0.01020  -0.00780   0.00562
 113        4D+2        0.00349  -0.00161  -0.00104   0.00426   0.00196
 114        4D-2        0.00523  -0.00182  -0.00435  -0.00145  -0.00337
 115 9   H  1S         -0.10949   0.02224   0.02825  -0.01003   0.00682
 116        2S         -0.07600   0.01709   0.01358   0.00960  -0.00191
 117        3PX        -0.00257   0.00067  -0.00333  -0.00436  -0.00387
 118        3PY         0.00529   0.00080   0.00023  -0.00387  -0.00057
 119        3PZ         0.00010   0.01055   0.01273  -0.00610   0.00663
                          21        22        23        24        25
                           O         O         O         O         V
     Eigenvalues --    -0.34886  -0.33422  -0.32402  -0.31470  -0.12408
   1 1   Ti 1S          0.00374   0.00501   0.01395  -0.00375  -0.00188
   2        2S          0.00885   0.01285   0.03601  -0.01011  -0.00469
   3        3S          0.00704   0.00558   0.01462  -0.00231  -0.00273
   4        4S         -0.02003  -0.02327  -0.06664   0.01762   0.00744
   5        5S         -0.00032   0.01691   0.06285  -0.02887   0.00205
   6        6S          0.00078  -0.00273  -0.01096   0.00549   0.00237
   7        7PX        -0.01090  -0.00856   0.00188  -0.00447  -0.00067
   8        7PY         0.00538  -0.01162   0.00190   0.00236  -0.00002
   9        7PZ         0.00282   0.00312   0.00708  -0.00141   0.00239
  10        8PX        -0.08120  -0.06383   0.01393  -0.03339  -0.00505
  11        8PY         0.04030  -0.08667   0.01419   0.01753  -0.00013
  12        8PZ         0.02112   0.02319   0.05280  -0.01050   0.01768
  13        9PX        -0.01874  -0.01384   0.00403  -0.00699  -0.00132
  14        9PY         0.00856  -0.02077   0.00277   0.00464  -0.00040
  15        9PZ         0.00396   0.00535   0.01074  -0.00212   0.00399
  16       10PX         0.11643   0.07883  -0.04886   0.02995   0.05207
  17       10PY        -0.00010   0.11651  -0.00381  -0.04671  -0.01251
  18       10PZ        -0.00596  -0.06023  -0.07566   0.01471  -0.01718
  19       11PX        -0.00781  -0.00524  -0.01248  -0.00661  -0.00078
  20       11PY         0.02375  -0.01030   0.00464  -0.00456   0.00290
  21       11PZ         0.01242  -0.00815   0.00278   0.00079   0.00716
  22       12D 0        0.00130  -0.06293  -0.06811   0.00504   0.22819
  23       12D+1       -0.12226   0.05036   0.04680   0.02870  -0.46615
  24       12D-1       -0.11873   0.00564  -0.06388  -0.01840   0.60699
  25       12D+2       -0.11690   0.05867  -0.04777   0.01094  -0.15270
  26       12D-2       -0.07503   0.01358   0.03987   0.03196  -0.22260
  27       13D 0        0.00468  -0.02641  -0.02909   0.00308   0.07382
  28       13D+1       -0.06581   0.00863   0.02137   0.00016  -0.15873
  29       13D-1       -0.04101  -0.01660  -0.02417  -0.01303   0.21472
  30       13D+2       -0.04056   0.02954  -0.01379   0.01076  -0.05722
  31       13D-2       -0.01184  -0.01490   0.02534   0.00963  -0.08111
  32       14D 0        0.00108  -0.00723  -0.02571   0.00744  -0.03765
  33       14D+1       -0.04406  -0.00553   0.01180  -0.00967   0.02552
  34       14D-1       -0.00178  -0.03612  -0.01300  -0.01243  -0.01896
  35       14D+2       -0.00880   0.02073   0.00461   0.02905  -0.00585
[...]
 119        3PZ         0.00000   0.00000   0.00000   0.00000   0.00000
                          91        92        93        94        95
  91        4D 0        0.00081
  92        4D+1        0.00000   0.00070
  93        4D-1        0.00000   0.00000   0.00087
  94        4D+2        0.00000   0.00000   0.00000   0.00020
  95        4D-2        0.00000   0.00000   0.00000   0.00000   0.00020
  96 7   H  1S          0.00086   0.00036   0.00176   0.00007   0.00006
  97        2S          0.00009   0.00003   0.00018  -0.00001  -0.00002
  98        3PX         0.00004   0.00014   0.00004  -0.00003  -0.00004
  99        3PY         0.00016   0.00003  -0.00002  -0.00004   0.00000
 100        3PZ         0.00000   0.00003   0.00011   0.00002   0.00002
 101 8   O  1S          0.00000   0.00000   0.00000   0.00000   0.00000
 102        2S          0.00000   0.00000   0.00000   0.00000   0.00000
 103        2PX         0.00000   0.00000   0.00000   0.00000   0.00000
 104        2PY         0.00000   0.00000   0.00000   0.00000   0.00000
 105        2PZ         0.00000   0.00000   0.00000   0.00000   0.00000
 106        3S          0.00000   0.00000   0.00000   0.00000   0.00000
 107        3PX         0.00000   0.00000   0.00001   0.00000   0.00000
 108        3PY         0.00000   0.00001   0.00003   0.00000   0.00000
 109        3PZ         0.00000   0.00000  -0.00002   0.00000   0.00000
 110        4D 0        0.00000   0.00000   0.00000   0.00000   0.00000
 111        4D+1        0.00000   0.00000   0.00000   0.00000   0.00000
 112        4D-1        0.00000   0.00000   0.00000   0.00000   0.00000
 113        4D+2        0.00000   0.00000   0.00000   0.00000   0.00000
 114        4D-2        0.00000   0.00000   0.00000   0.00000   0.00000
 115 9   H  1S          0.00000   0.00000   0.00000   0.00000   0.00000
 116        2S          0.00000   0.00000   0.00000   0.00000   0.00000
 117        3PX         0.00000   0.00000   0.00000   0.00000   0.00000
 118        3PY         0.00000   0.00000   0.00000   0.00000   0.00000
 119        3PZ         0.00000   0.00000   0.00000   0.00000   0.00000
                          96        97        98        99       100
  96 7   H  1S          0.20521
  97        2S          0.06078   0.05387
  98        3PX         0.00000   0.00000   0.00099
  99        3PY         0.00000   0.00000   0.00000   0.00121
 100        3PZ         0.00000   0.00000   0.00000   0.00000   0.00130
 101 8   O  1S          0.00000   0.00000   0.00000   0.00000   0.00000
 102        2S          0.00000   0.00000   0.00000   0.00000   0.00000
 103        2PX         0.00000  -0.00004   0.00000   0.00000   0.00000
 104        2PY         0.00000  -0.00018   0.00000   0.00000   0.00000
 105        2PZ         0.00000   0.00005   0.00000   0.00000   0.00000
 106        3S          0.00000   0.00002   0.00000   0.00000   0.00000
 107        3PX        -0.00001  -0.00031   0.00000   0.00000   0.00000
 108        3PY        -0.00005  -0.00161   0.00000   0.00000   0.00000
 109        3PZ         0.00002   0.00044   0.00000   0.00000   0.00000
 110        4D 0        0.00000   0.00000   0.00000   0.00000   0.00000
 111        4D+1        0.00000   0.00000   0.00000   0.00000   0.00000
 112        4D-1        0.00000   0.00000   0.00000   0.00000   0.00000
 113        4D+2        0.00000   0.00000   0.00000   0.00000   0.00000
 114        4D-2        0.00000   0.00001   0.00000   0.00000   0.00000
 115 9   H  1S          0.00000   0.00000   0.00000   0.00000   0.00000
 116        2S          0.00000  -0.00001   0.00000   0.00000   0.00000
 117        3PX         0.00000   0.00000   0.00000   0.00000   0.00000
 118        3PY         0.00000   0.00000   0.00000   0.00000   0.00000
 119        3PZ         0.00000   0.00000   0.00000   0.00000   0.00000
                         101       102       103       104       105
 101 8   O  1S          2.08329
 102        2S         -0.03934   0.49618
 103        2PX         0.00000   0.00000   0.63575
 104        2PY         0.00000   0.00000   0.00000   0.72586
 105        2PZ         0.00000   0.00000   0.00000   0.00000   0.65325
 106        3S         -0.04594   0.41165   0.00000   0.00000   0.00000
 107        3PX         0.00000   0.00000   0.19995   0.00000   0.00000
 108        3PY         0.00000   0.00000   0.00000   0.26099   0.00000
 109        3PZ         0.00000   0.00000   0.00000   0.00000   0.21313
 110        4D 0        0.00000   0.00000   0.00000   0.00000   0.00000
 111        4D+1        0.00000   0.00000   0.00000   0.00000   0.00000
 112        4D-1        0.00000   0.00000   0.00000   0.00000   0.00000
 113        4D+2        0.00000   0.00000   0.00000   0.00000   0.00000
 114        4D-2        0.00000   0.00000   0.00000   0.00000   0.00000
 115 9   H  1S         -0.00155   0.02282   0.05688   0.00017   0.03258
 116        2S          0.00080  -0.00895   0.01599   0.00004   0.00929
 117        3PX        -0.00049   0.00439   0.00104   0.00002   0.00527
 118        3PY         0.00000   0.00000   0.00003   0.00356   0.00002
 119        3PZ        -0.00024   0.00200   0.00571   0.00002  -0.00036
                         106       107       108       109       110
 106        3S          0.61203
 107        3PX         0.00000   0.25487
 108        3PY         0.00000   0.00000   0.37414
 109        3PZ         0.00000   0.00000   0.00000   0.28410
 110        4D 0        0.00000   0.00000   0.00000   0.00000   0.00049
 111        4D+1        0.00000   0.00000   0.00000   0.00000   0.00000
 112        4D-1        0.00000   0.00000   0.00000   0.00000   0.00000
 113        4D+2        0.00000   0.00000   0.00000   0.00000   0.00000
 114        4D-2        0.00000   0.00000   0.00000   0.00000   0.00000
 115 9   H  1S          0.01736   0.06303   0.00010   0.03242  -0.00007
 116        2S         -0.03984   0.02949   0.00005   0.01625  -0.00001
 117        3PX         0.00310  -0.00003   0.00000   0.00226  -0.00001
 118        3PY        -0.00001   0.00001   0.00502   0.00001   0.00000
 119        3PZ         0.00118   0.00268   0.00001   0.00099   0.00002
                         111       112       113       114       115
 111        4D+1        0.00092
 112        4D-1        0.00000   0.00022
 113        4D+2        0.00000   0.00000   0.00059
 114        4D-2        0.00000   0.00000   0.00000   0.00066
 115 9   H  1S          0.00162  -0.00001   0.00170  -0.00003   0.20519
 116        2S          0.00015   0.00000   0.00016   0.00000   0.06145
 117        3PX         0.00018   0.00000   0.00000   0.00000   0.00000
 118        3PY         0.00000  -0.00007  -0.00001   0.00023   0.00000
 119        3PZ        -0.00001   0.00000   0.00016   0.00000   0.00000
                         116       117       118       119
 116        2S          0.05490
 117        3PX         0.00000   0.00142
 118        3PY         0.00000   0.00000   0.00090
 119        3PZ         0.00000   0.00000   0.00000   0.00115
     Gross orbital populations:
                           1
   1 1   Ti 1S         -0.31025
   2        2S          1.35698
   3        3S          0.97022
   4        4S          0.15076
   5        5S          0.00284
   6        6S         -0.00185
   7        7PX        -0.07520
   8        7PY        -0.07537
   9        7PZ        -0.07528
  10        8PX         1.41803
  11        8PY         1.42025
  12        8PZ         1.41909
  13        9PX         0.67619
  14        9PY         0.67468
  15        9PZ         0.67557
  16       10PX         0.08873
  17       10PY         0.09084
  18       10PZ         0.09809
  19       11PX         0.01668
  20       11PY         0.01311
  21       11PZ         0.01568
  22       12D 0        0.32670
  23       12D+1        0.21422
  24       12D-1        0.26417
  25       12D+2        0.28710
  26       12D-2        0.28088
  27       13D 0        0.10860
  28       13D+1        0.11795
  29       13D-1        0.12484
  30       13D+2        0.11557
  31       13D-2        0.11578
  32       14D 0        0.03009
  33       14D+1        0.03775
  34       14D-1        0.03991
  35       14D+2        0.03349
  36       14D-2        0.03606
  37       15F 0        0.01410
  38       15F+1        0.01167
  39       15F-1        0.01352
  40       15F+2        0.01030
  41       15F-2        0.00924
  42       15F+3        0.01324
  43       15F-3        0.01311
  44 2   O  1S          1.99698
  45        2S          0.89587
  46        2PX         1.01157
  47        2PY         0.87680
  48        2PZ         1.01640
  49        3S          0.96933
  50        3PX         0.68783
  51        3PY         0.50196
  52        3PZ         0.69290
  53        4D 0        0.00226
  54        4D+1        0.00173
  55        4D-1        0.00060
  56        4D+2        0.00273
  57        4D-2        0.00288
  58 3   H  1S          0.48666
  59        2S          0.12701
  60        3PX         0.01066
  61        3PY         0.01990
  62        3PZ         0.01049
  63 4   O  1S          1.99697
  64        2S          0.89509
  65        2PX         0.97241
  66        2PY         0.94177
  67        2PZ         0.99297
  68        3S          0.96556
  69        3PX         0.60303
  70        3PY         0.60502
  71        3PZ         0.67747
  72        4D 0        0.00082
  73        4D+1        0.00137
  74        4D-1        0.00220
  75        4D+2        0.00245
  76        4D-2        0.00276
  77 5   H  1S          0.48522
  78        2S          0.12202
  79        3PX         0.01224
  80        3PY         0.01658
  81        3PZ         0.01223
  82 6   O  1S          1.99698
  83        2S          0.89639
  84        2PX         1.00605
  85        2PY         0.94686
  86        2PZ         0.95251
  87        3S          0.96711
  88        3PX         0.68610
  89        3PY         0.57587
  90        3PZ         0.61693
  91        4D 0        0.00230
  92        4D+1        0.00170
  93        4D-1        0.00399
  94        4D+2        0.00101
  95        4D-2        0.00091
  96 7   H  1S          0.48546
  97        2S          0.12226
  98        3PX         0.01119
  99        3PY         0.01419
 100        3PZ         0.01562
 101 8   O  1S          1.99698
 102        2S          0.89609
 103        2PX         0.93400
 104        2PY         1.02194
 105        2PZ         0.94881
 106        3S          0.96814
 107        3PX         0.59286
 108        3PY         0.71626
 109        3PZ         0.57169
 110        4D 0        0.00130
 111        4D+1        0.00399
 112        4D-1        0.00102
 113        4D+2        0.00282
 114        4D-2        0.00106
 115 9   H  1S          0.48546
 116        2S          0.12240
 117        3PX         0.01702
 118        3PY         0.01019
 119        3PZ         0.01374
          Condensed to atoms (all electrons):
 Mulliken atomic charges:
              1
     1  Ti   1.231932
     2  O   -0.659843
     3  H    0.345286
     4  O   -0.659894
     5  H    0.351716
     6  O   -0.654719
     7  H    0.351275
     8  O   -0.656941
     9  H    0.351189
 Sum of Mulliken atomic charges =   0.00000
 Mulliken charges with hydrogens summed into heavy atoms:
              1
     1  Ti   1.231932
     2  O   -0.314557
     4  O   -0.308178
     6  O   -0.303444
     8  O   -0.305753
 Sum of Mulliken charges with hydrogens summed into heavy atoms =   0.00000
 Electronic spatial extent (au):  <R**2>=            543.3412
 Charge=              0.0000 electrons
 Dipole moment (field-independent basis, Debye):
    X=             -2.0364    Y=             -0.7731    Z=             -1.1508  Tot=              2.4635
 Orbital energies and kinetic energies (alpha):
                                 1                 2
   1         O               -19.139051         29.120437
   2         O               -19.137209         29.120449
   3         O               -19.136376         29.120550
   4         O               -19.126419         29.120505
   5         O                -2.500841          1.505405
   6         O                -1.536827          2.405172
   7         O                -1.534814          2.409218
   8         O                -1.532199          2.405852
   9         O                -0.979826          2.695566
  10         O                -0.970423          2.783850
  11         O                -0.968866          2.784244
  12         O                -0.960515          2.776998
  13         O                -0.494770          2.110270
  14         O                -0.492011          2.144419
  15         O                -0.487591          2.170486
  16         O                -0.480853          2.142588
  17         O                -0.364442          2.310075
  18         O                -0.362862          2.321483
  19         O                -0.350382          2.171521
  20         O                -0.344742          2.190858
  21         O                -0.336335          2.170778
  22         O                -0.323474          2.371127
  23         O                -0.315561          2.348504
  24         O                -0.303572          2.340260
  25         V                -0.049992          3.931427
  26         V                -0.041866          3.985961
  27         V                -0.018602          0.572359
  28         V                -0.008781          3.305848
  29         V                -0.001089          3.510583
  30         V                 0.000451          3.502383
  31         V                 0.020318          0.717427
  32         V                 0.028240          0.727319
  33         V                 0.030726          0.560380
  34         V                 0.044975          0.394676
  35         V                 0.104344          0.707339
  36         V                 0.118295          0.722634
  37         V                 0.127955          0.626268
  38         V                 0.136688          0.516519
  39         V                 0.144105          0.527531
  40         V                 0.175961          1.106045
  41         V                 0.191817          1.103229
  42         V                 0.193869          1.097098
  43         V                 0.205506          1.262076
  44         V                 0.240363          1.296077
  45         V                 0.253191          1.392146
  46         V                 0.260169          1.266106
  47         V                 0.287179          1.276936
  48         V                 0.514626          1.920374
  49         V                 0.522610          1.968109
  50         V                 0.525495          1.945982
  51         V                 0.572746          2.513370
  52         V                 0.575363          2.569764
  53         V                 0.860991          2.412269
  54         V                 0.872778          2.537231
  55         V                 0.881713          2.596828
  56         V                 0.892239          2.735515
  57         V                 0.927528          3.264758
  58         V                 0.954517          3.430318
  59         V                 0.958616          3.509713
  60         V                 0.993093          3.307277
  61         V                 1.019098          3.456236
  62         V                 1.025169          3.432092
  63         V                 1.064311          3.444566
  64         V                 1.099968          3.371989
  65         V                 1.111747          3.276660
  66         V                 1.133676          3.058962
  67         V                 1.160689          3.087628
  68         V                 1.182612          2.930373
  69         V                 1.213788          3.076509
  70         V                 1.227361          2.876580
  71         V                 1.244471          2.845736
  72         V                 1.322487          3.343512
  73         V                 1.377079          2.977881
  74         V                 1.393191          2.857051
  75         V                 1.435535          2.844962
  76         V                 1.479899          3.280885
  77         V                 1.497018          2.992306
  78         V                 1.527987          3.003479
  79         V                 1.573936          2.968384
  80         V                 1.593445          3.034838
  81         V                 1.598693          3.082714
  82         V                 1.639042          2.923301
  83         V                 1.644945          2.811303
  84         V                 1.707857          2.889734
  85         V                 1.725193          2.812423
  86         V                 1.735798          2.924119
  87         V                 1.803131          3.830086
  88         V                 1.886765          3.170991
  89         V                 1.928065          3.233388
  90         V                 1.986283          3.268155
  91         V                 2.010116          3.258249
  92         V                 2.119666          3.270938
  93         V                 2.143801          3.275840
  94         V                 2.155397          3.311409
  95         V                 2.207579          3.367299
  96         V                 2.374323          3.781150
  97         V                 2.393358          3.958525
  98         V                 2.403107          4.007094
  99         V                 2.436829          3.806084
 100         V                 2.446770          3.938739
 101         V                 2.468893          3.861189
 102         V                 2.532408          4.051485
 103         V                 2.576406          3.872551
 104         V                 2.644929          3.616330
 105         V                 2.652244          3.665723
 106         V                 2.691283          3.704345
 107         V                 2.699783          3.711835
 108         V                 2.814599          4.187470
 109         V                 2.832619          4.182063
 110         V                 2.840447          4.266353
 111         V                 3.033737          4.595145
 112         V                 3.464929          5.534025
 113         V                 3.477212          5.534070
 114         V                 3.501232          5.553020
 115         V                 3.524653          5.580455
 116         V                24.577234         22.791036
 117         V                24.583232         22.796971
 118         V                24.599141         22.809565
 119         V                35.571156         11.869899
 Total kinetic energy from orbitals= 3.260812286182D+02

 Test job not archived.
 1\1\GINC-TITAN12\FOpt\RB3PW91\GenECP\H4O4Ti1\OHNISHI\26-Oct-2016\0\\#T
  B3PW91/GenECP SCFCon=7 SCFCyc=250 GFInput GFOldPrint Opt=(MaxCyc=60,C
 alcFC) NoSym Integral=(Grid=UltraFine) Pop=Regular Pseudo=Read IOp(1/3
 3=0,2/11=1,3/27=8,6/7=3)\\TiO2 1-5a\\0,1\Ti,0.042502601,0.0974510237,-
 0.0617326045\O,0.9162188814,1.3029789321,0.956951921\H,0.6427507787,2.
 2072143273,1.1387519822\O,-1.6850076296,-0.0086742361,0.432781571\H,-2
 .1460277235,-0.7464008442,0.8424734601\O,0.842192955,-1.5009249836,0.1
 327017999\H,1.1323011094,-2.1019293085,-0.5600853123\O,0.0519588831,0.
 605939144,-1.7908196126\H,-0.7151374754,0.6476071953,-2.3700275648\\Ve
 rsion=AM64L-G09RevC.01\HF=-361.7649111\RMSD=4.624e-08\RMSF=4.818e-06\D
 ipole=-0.801171,-0.3041646,-0.4527615\Quadrupole=-2.3354089,3.0166597,
 -0.6812508,0.1909103,-0.5119789,2.2471887\PG=C01 [X(H4O4Ti1)]\\@


  THE LARGE PRINT GIVETH,
  AND THE SMALL PRINT TAKETH AWAY.

                     -- TOM WAITS
 Job cpu time:  0 days  0 hours  6 minutes  7.3 seconds.
 File lengths (MBytes):  RWF=     21 Int=      0 D2E=      0 Chk=      2 Scr=      1
 Normal termination of Gaussian 09 at Wed Oct 26 17:41:01 2016.
real 383.94
user 343.31
sys 24.08
