 Running on titan10
 Entering Gaussian System, Link 0=g09
 Initial command:
 /opt/qcapps/g09/l1.exe /work/ohnishi/1477468356/Gau-3767.inp -scrdir=/work/ohnishi/1477468356/
 Entering Link 1 = /opt/qcapps/g09/l1.exe PID=      3768.
  
 Copyright (c) 1988,1990,1992,1993,1995,1998,2003,2009,2011,
            Gaussian, Inc.  All Rights Reserved.
  
 This is part of the Gaussian(R) 09 program.  It is based on
 the Gaussian(R) 03 system (copyright 2003, Gaussian, Inc.),
 the Gaussian(R) 98 system (copyright 1998, Gaussian, Inc.),
 the Gaussian(R) 94 system (copyright 1995, Gaussian, Inc.),
 the Gaussian 92(TM) system (copyright 1992, Gaussian, Inc.),
 the Gaussian 90(TM) system (copyright 1990, Gaussian, Inc.),
 the Gaussian 88(TM) system (copyright 1988, Gaussian, Inc.),
 the Gaussian 86(TM) system (copyright 1986, Carnegie Mellon
 University), and the Gaussian 82(TM) system (copyright 1983,
 Carnegie Mellon University). Gaussian is a federally registered
 trademark of Gaussian, Inc.
  
 This software contains proprietary and confidential information,
 including trade secrets, belonging to Gaussian, Inc.
  
 This software is provided under written license and may be
 used, copied, transmitted, or stored only in accord with that
 written license.
  
 The following legend is applicable only to US Government
 contracts under FAR:
  
                    RESTRICTED RIGHTS LEGEND
  
 Use, reproduction and disclosure by the US Government is
 subject to restrictions as set forth in subparagraphs (a)
 and (c) of the Commercial Computer Software - Restricted
 Rights clause in FAR 52.227-19.
  
 Gaussian, Inc.
 340 Quinnipiac St., Bldg. 40, Wallingford CT 06492
  
  
 ---------------------------------------------------------------
 Warning -- This program may not be used in any manner that
 competes with the business of Gaussian, Inc. or will provide
 assistance to any competitor of Gaussian, Inc.  The licensee
 of this program is prohibited from giving any competitor of
 Gaussian, Inc. access to this program.  By using this program,
 the user acknowledges that Gaussian, Inc. is engaged in the
 business of creating and licensing software in the field of
 computational chemistry and represents and warrants to the
 licensee that it is not a competitor of Gaussian, Inc. and that
 it will not use this program in any manner prohibited above.
 ---------------------------------------------------------------
  

 Cite this work as:
 Gaussian 09, Revision C.01,
 M. J. Frisch, G. W. Trucks, H. B. Schlegel, G. E. Scuseria, 
 M. A. Robb, J. R. Cheeseman, G. Scalmani, V. Barone, B. Mennucci, 
 G. A. Petersson, H. Nakatsuji, M. Caricato, X. Li, H. P. Hratchian, 
 A. F. Izmaylov, J. Bloino, G. Zheng, J. L. Sonnenberg, M. Hada, 
 M. Ehara, K. Toyota, R. Fukuda, J. Hasegawa, M. Ishida, T. Nakajima, 
 Y. Honda, O. Kitao, H. Nakai, T. Vreven, J. A. Montgomery, Jr., 
 J. E. Peralta, F. Ogliaro, M. Bearpark, J. J. Heyd, E. Brothers, 
 K. N. Kudin, V. N. Staroverov, T. Keith, R. Kobayashi, J. Normand, 
 K. Raghavachari, A. Rendell, J. C. Burant, S. S. Iyengar, J. Tomasi, 
 M. Cossi, N. Rega, J. M. Millam, M. Klene, J. E. Knox, J. B. Cross, 
 V. Bakken, C. Adamo, J. Jaramillo, R. Gomperts, R. E. Stratmann, 
 O. Yazyev, A. J. Austin, R. Cammi, C. Pomelli, J. W. Ochterski, 
 R. L. Martin, K. Morokuma, V. G. Zakrzewski, G. A. Voth, 
 P. Salvador, J. J. Dannenberg, S. Dapprich, A. D. Daniels, 
 O. Farkas, J. B. Foresman, J. V. Ortiz, J. Cioslowski, 
 and D. J. Fox, Gaussian, Inc., Wallingford CT, 2010.
 
 ******************************************
 Gaussian 09:  AM64L-G09RevC.01 23-Sep-2011
                26-Oct-2016 
 ******************************************
 %NprocShared=8
 Will use up to    8 processors via shared memory.
 %Mem=25712MB
 ----------------------------------------------------------------------
 #T B3PW91/GenECP SCFCon=7 SCFCyc=250 GFInput GFOldPrint Opt=(MaxCyc=60
 ,CalcFC) NoSym Integral=(Grid=UltraFine) Pop=Regular Pseudo=Read IOp(1
 /33=0,2/11=1,3/27=8,6/7=3)
 ----------------------------------------------------------------------
 ----
 TiO2
 ----
 Charge =  0 Multiplicity = 1
 Symbolic Z-Matrix:
 Ti                    0.        0.18592   0. 
 O                     1.39901   1.05382   0. 
 O                    -1.39878   1.05419   0. 
 O                    -0.00018  -1.98305   0. 
 H                    -0.78414  -2.54493   0. 
 H                     0.7837   -2.54505   0. 
 

 GradGradGradGradGradGradGradGradGradGradGradGradGradGradGradGradGradGrad
 Initialization pass.
                           ----------------------------
                           !    Initial Parameters    !
                           ! (Angstroms and Degrees)  !
 --------------------------                            --------------------------
 ! Name  Definition              Value          Derivative Info.                !
 --------------------------------------------------------------------------------
 ! R1    R(1,2)                  1.6464         calculate D2E/DX2 analytically  !
 ! R2    R(1,3)                  1.6464         calculate D2E/DX2 analytically  !
 ! R3    R(1,4)                  2.169          calculate D2E/DX2 analytically  !
 ! R4    R(4,5)                  0.9645         calculate D2E/DX2 analytically  !
 ! R5    R(4,6)                  0.9645         calculate D2E/DX2 analytically  !
 ! A1    A(2,1,3)              116.3567         calculate D2E/DX2 analytically  !
 ! A2    A(2,1,4)              121.8187         calculate D2E/DX2 analytically  !
 ! A3    A(3,1,4)              121.8247         calculate D2E/DX2 analytically  !
 ! A4    A(1,4,5)              125.6345         calculate D2E/DX2 analytically  !
 ! A5    A(1,4,6)              125.6344         calculate D2E/DX2 analytically  !
 ! A6    A(5,4,6)              108.7311         calculate D2E/DX2 analytically  !
 ! D1    D(2,1,4,5)            180.0            calculate D2E/DX2 analytically  !
 ! D2    D(2,1,4,6)              0.0            calculate D2E/DX2 analytically  !
 ! D3    D(3,1,4,5)              0.0            calculate D2E/DX2 analytically  !
 ! D4    D(3,1,4,6)            180.0            calculate D2E/DX2 analytically  !
 --------------------------------------------------------------------------------
 Number of steps in this run=     60 maximum allowed number of steps=    100.
 GradGradGradGradGradGradGradGradGradGradGradGradGradGradGradGradGradGrad

                          Input orientation:                          
 ---------------------------------------------------------------------
 Center     Atomic      Atomic             Coordinates (Angstroms)
 Number     Number       Type             X           Y           Z
 ---------------------------------------------------------------------
      1         22           0        0.000000    0.185922    0.000000
      2          8           0        1.399009    1.053818    0.000000
      3          8           0       -1.398778    1.054192    0.000000
      4          8           0       -0.000176   -1.983047    0.000000
      5          1           0       -0.784138   -2.544927    0.000000
      6          1           0        0.783699   -2.545054    0.000000
 ---------------------------------------------------------------------
                    Distance matrix (angstroms):
                    1          2          3          4          5
     1  Ti   0.000000
     2  O    1.646350   0.000000
     3  O    1.646351   2.797787   0.000000
     4  O    2.168969   3.343691   3.343787   0.000000
     5  H    2.841198   4.209168   3.651224   0.964523   0.000000
     6  H    2.841199   3.651094   4.209249   0.964527   1.567837
                    6
     6  H    0.000000
 Symmetry turned off by external request.
 Framework group  CS[SG(H2O3Ti)]
 Deg. of freedom     9
 Rotational constants (GHZ):      7.9163789      4.4799451      2.8609242
 ======================================================================================================
                                       Pseudopotential Parameters
 ======================================================================================================
  Center     Atomic      Valence      Angular      Power
  Number     Number     Electrons     Momentum     of R      Exponent        Coefficient   SO-Coeffient
 ======================================================================================================
    1         22           12
                                      F and up 
                                                     2        1.0000000        0.00000000    0.00000000
                                      S - F
                                                     2       13.0100000      158.24159300    0.00000000
                                                     2        5.8620000       17.51182400    0.00000000
                                      P - F
                                                     2       12.4600000       95.23512700    0.00000000
                                                     2        5.2170000       10.04785600    0.00000000
                                      D - F
                                                     2       15.3500000      -17.56886100    0.00000000
                                                     2        4.9800000       -0.58725600    0.00000000
    2          8
                                   No pseudopotential on this center.
    3          8
                                   No pseudopotential on this center.
    4          8
                                   No pseudopotential on this center.
    5          1
                                   No pseudopotential on this center.
    6          1
                                   No pseudopotential on this center.
 ======================================================================================================
 AO basis set in the form of general basis input (Overlap normalization):
      1 0
 S   3 1.00       0.000000000000
      0.1078036500D+02  0.1783892477D+01
      0.9717013000D+01 -0.2000689535D+01
      0.4507755000D+01 -0.7563332022D+00
 S   1 1.00       0.000000000000
      0.1246708000D+01  0.1000000000D+01
 S   1 1.00       0.000000000000
      0.5087070000D+00  0.1000000000D+01
 S   1 1.00       0.000000000000
      0.7343800000D-01  0.1000000000D+01
 S   1 1.00       0.000000000000
      0.3004800000D-01  0.1000000000D+01
 S   1 1.00       0.000000000000
      0.1000000000D-01  0.1000000000D+01
 P   2 1.00       0.000000000000
      0.1756638100D+02  0.8860101480D-01
      0.7705844000D+01 -0.1070746179D+01
 P   2 1.00       0.000000000000
      0.3329138000D+01  0.2001088977D+00
      0.1308104000D+01  0.8379855716D+00
 P   1 1.00       0.000000000000
      0.4544820000D+00  0.1000000000D+01
 P   1 1.00       0.000000000000
      0.7177200000D-01  0.1000000000D+01
 P   1 1.00       0.000000000000
      0.2378400000D-01  0.1000000000D+01
 D   4 1.00       0.000000000000
      0.1951919400D+02  0.3581400317D-01
      0.5864613000D+01  0.1723730152D+00
      0.1928038000D+01  0.4251360376D+00
      0.6065630000D+00  0.6025950533D+00
 D   1 1.00       0.000000000000
      0.1639610000D+00  0.1000000000D+01
 D   1 1.00       0.000000000000
      0.5000000000D-01  0.1000000000D+01
 F   1 1.00       0.000000000000
      0.5000000000D+00  0.1000000000D+01
 ****
      2 0
 S   6 1.00       0.000000000000
      0.5484671660D+04  0.1831074430D-02
      0.8252349460D+03  0.1395017220D-01
      0.1880469580D+03  0.6844507810D-01
      0.5296450000D+02  0.2327143360D+00
      0.1689757040D+02  0.4701928980D+00
      0.5799635340D+01  0.3585208530D+00
 SP   3 1.00       0.000000000000
      0.1553961625D+02 -0.1107775495D+00  0.7087426823D-01
      0.3599933586D+01 -0.1480262627D+00  0.3397528391D+00
      0.1013761750D+01  0.1130767015D+01  0.7271585773D+00
 SP   1 1.00       0.000000000000
      0.2700058226D+00  0.1000000000D+01  0.1000000000D+01
 D   1 1.00       0.000000000000
      0.8000000000D+00  0.1000000000D+01
 ****
      3 0
 S   6 1.00       0.000000000000
      0.5484671660D+04  0.1831074430D-02
      0.8252349460D+03  0.1395017220D-01
      0.1880469580D+03  0.6844507810D-01
      0.5296450000D+02  0.2327143360D+00
      0.1689757040D+02  0.4701928980D+00
      0.5799635340D+01  0.3585208530D+00
 SP   3 1.00       0.000000000000
      0.1553961625D+02 -0.1107775495D+00  0.7087426823D-01
      0.3599933586D+01 -0.1480262627D+00  0.3397528391D+00
      0.1013761750D+01  0.1130767015D+01  0.7271585773D+00
 SP   1 1.00       0.000000000000
      0.2700058226D+00  0.1000000000D+01  0.1000000000D+01
 D   1 1.00       0.000000000000
      0.8000000000D+00  0.1000000000D+01
 ****
      4 0
 S   6 1.00       0.000000000000
      0.5484671660D+04  0.1831074430D-02
      0.8252349460D+03  0.1395017220D-01
      0.1880469580D+03  0.6844507810D-01
      0.5296450000D+02  0.2327143360D+00
      0.1689757040D+02  0.4701928980D+00
      0.5799635340D+01  0.3585208530D+00
 SP   3 1.00       0.000000000000
      0.1553961625D+02 -0.1107775495D+00  0.7087426823D-01
      0.3599933586D+01 -0.1480262627D+00  0.3397528391D+00
      0.1013761750D+01  0.1130767015D+01  0.7271585773D+00
 SP   1 1.00       0.000000000000
      0.2700058226D+00  0.1000000000D+01  0.1000000000D+01
 D   1 1.00       0.000000000000
      0.8000000000D+00  0.1000000000D+01
 ****
      5 0
 S   3 1.00       0.000000000000
      0.1873113696D+02  0.3349460434D-01
      0.2825394365D+01  0.2347269535D+00
      0.6401216923D+00  0.8137573261D+00
 S   1 1.00       0.000000000000
      0.1612777588D+00  0.1000000000D+01
 P   1 1.00       0.000000000000
      0.1100000000D+01  0.1000000000D+01
 ****
      6 0
 S   3 1.00       0.000000000000
      0.1873113696D+02  0.3349460434D-01
      0.2825394365D+01  0.2347269535D+00
      0.6401216923D+00  0.8137573261D+00
 S   1 1.00       0.000000000000
      0.1612777588D+00  0.1000000000D+01
 P   1 1.00       0.000000000000
      0.1100000000D+01  0.1000000000D+01
 ****

 ***********************************************************************************************************************************
 *             ATOMIC CENTER             *        ATOMIC ORBITAL       *                     GAUSSIAN FUNCTIONS                    *
 ***********************************************************************************************************************************
 *                                       * FUNCTION    SHELL    SCALE  *                                                           *
 *    ATOM   X-COORD  Y-COORD  Z-COORD   *  NUMBER     TYPE     FACTOR *  EXPONENT    S-COEF      P-COEF      D-COEF      F-COEF   *
 ***********************************************************************************************************************************
 *     Ti     0.00000  0.35134  0.00000                                                                                            *
+                                                1   S           1.00                                                               
+                                                                      0.107804D+020.756404D+010.000000D+000.000000D+000.000000D+00 
 *                                                                     0.971701D+01-.784765D+010.000000D+000.000000D+000.000000D+00*
 *                                                                     0.450776D+01-.166761D+010.000000D+000.000000D+000.000000D+00*
 *                                               2   S           1.00                                                              *
+                                                                      0.124671D+010.840879D+000.000000D+000.000000D+000.000000D+00 
 *                                               3   S           1.00                                                              *
+                                                                      0.508707D+000.429300D+000.000000D+000.000000D+000.000000D+00 
 *                                               4   S           1.00                                                              *
+                                                                      0.734380D-010.100543D+000.000000D+000.000000D+000.000000D+00 
 *                                               5   S           1.00                                                              *
+                                                                      0.300480D-010.514365D-010.000000D+000.000000D+000.000000D+00 
 *                                               6   S           1.00                                                              *
+                                                                      0.100000D-010.225377D-010.000000D+000.000000D+000.000000D+00 
 *                                           7-  9   P           1.00                                                              *
+                                                                      0.175664D+020.000000D+000.454184D+010.000000D+000.000000D+00 
 *                                                                     0.770584D+010.000000D+00-.195953D+020.000000D+000.000000D+00*
 *                                          10- 12   P           1.00                                                              *
+                                                                      0.332914D+010.000000D+000.128269D+010.000000D+000.000000D+00 
 *                                                                     0.130810D+010.000000D+000.167101D+010.000000D+000.000000D+00*
 *                                          13- 15   P           1.00                                                              *
+                                                                      0.454482D+000.000000D+000.531907D+000.000000D+000.000000D+00 
 *                                          16- 18   P           1.00                                                              *
+                                                                      0.717720D-010.000000D+000.529522D-010.000000D+000.000000D+00 
 *                                          19- 21   P           1.00                                                              *
+                                                                      0.237840D-010.000000D+000.133136D-010.000000D+000.000000D+00 
 *                                          22- 26   D           1.00                                                              *
+                                                                      0.195192D+020.000000D+000.000000D+000.106849D+020.000000D+00 
 *                                                                     0.586461D+010.000000D+000.000000D+000.627043D+010.000000D+00*
 *                                                                     0.192804D+010.000000D+000.000000D+000.220744D+010.000000D+00*
 *                                                                     0.606563D+000.000000D+000.000000D+000.413493D+000.000000D+00*
 *                                          27- 31   D           1.00                                                              *
+                                                                      0.163961D+000.000000D+000.000000D+000.695353D-010.000000D+00 
 *                                          32- 36   D           1.00                                                              *
+                                                                      0.500000D-010.000000D+000.000000D+000.870176D-020.000000D+00 
 *                                          31- 43   F           1.00                                                              *
+                                                                      0.500000D+000.000000D+000.000000D+000.000000D+000.309483D+00 
 *---------------------------------------------------------------------------------------------------------------------------------*
 *     O      2.64374  1.99143  0.00000                                                                                            *
+                                               44   S           1.00                                                               
+                                                                      0.548467D+040.831724D+000.000000D+000.000000D+000.000000D+00 
 *                                                                     0.825235D+030.153082D+010.000000D+000.000000D+000.000000D+00*
 *                                                                     0.188047D+030.247715D+010.000000D+000.000000D+000.000000D+00*
 *                                                                     0.529645D+020.325628D+010.000000D+000.000000D+000.000000D+00*
 *                                                                     0.168976D+020.279289D+010.000000D+000.000000D+000.000000D+00*
 *                                                                     0.579964D+010.954938D+000.000000D+000.000000D+000.000000D+00*
 *                                          45- 48   SP          1.00                                                              *
+                                                                      0.155396D+02-.617934D+000.311694D+010.000000D+000.000000D+00 
 *                                                                     0.359993D+01-.275721D+000.240144D+010.000000D+000.000000D+00*
 *                                                                     0.101376D+010.814208D+000.105436D+010.000000D+000.000000D+00*
 *                                          49- 52   SP          1.00                                                              *
+                                                                      0.270006D+000.266956D+000.277432D+000.000000D+000.000000D+00 
 *                                          53- 57   D           1.00                                                              *
+                                                                      0.800000D+000.000000D+000.000000D+000.111382D+010.000000D+00 
 *---------------------------------------------------------------------------------------------------------------------------------*
 *     O     -2.64331  1.99213  0.00000                                                                                            *
+                                               58   S           1.00                                                               
+                                                                      0.548467D+040.831724D+000.000000D+000.000000D+000.000000D+00 
 *                                                                     0.825235D+030.153082D+010.000000D+000.000000D+000.000000D+00*
 *                                                                     0.188047D+030.247715D+010.000000D+000.000000D+000.000000D+00*
 *                                                                     0.529645D+020.325628D+010.000000D+000.000000D+000.000000D+00*
 *                                                                     0.168976D+020.279289D+010.000000D+000.000000D+000.000000D+00*
 *                                                                     0.579964D+010.954938D+000.000000D+000.000000D+000.000000D+00*
 *                                          59- 62   SP          1.00                                                              *
+                                                                      0.155396D+02-.617934D+000.311694D+010.000000D+000.000000D+00 
 *                                                                     0.359993D+01-.275721D+000.240144D+010.000000D+000.000000D+00*
 *                                                                     0.101376D+010.814208D+000.105436D+010.000000D+000.000000D+00*
 *                                          63- 66   SP          1.00                                                              *
+                                                                      0.270006D+000.266956D+000.277432D+000.000000D+000.000000D+00 
 *                                          67- 71   D           1.00                                                              *
+                                                                      0.800000D+000.000000D+000.000000D+000.111382D+010.000000D+00 
 *---------------------------------------------------------------------------------------------------------------------------------*
 *     O     -0.00033 -3.74742  0.00000                                                                                            *
+                                               72   S           1.00                                                               
+                                                                      0.548467D+040.831724D+000.000000D+000.000000D+000.000000D+00 
 *                                                                     0.825235D+030.153082D+010.000000D+000.000000D+000.000000D+00*
 *                                                                     0.188047D+030.247715D+010.000000D+000.000000D+000.000000D+00*
 *                                                                     0.529645D+020.325628D+010.000000D+000.000000D+000.000000D+00*
 *                                                                     0.168976D+020.279289D+010.000000D+000.000000D+000.000000D+00*
 *                                                                     0.579964D+010.954938D+000.000000D+000.000000D+000.000000D+00*
 *                                          73- 76   SP          1.00                                                              *
+                                                                      0.155396D+02-.617934D+000.311694D+010.000000D+000.000000D+00 
 *                                                                     0.359993D+01-.275721D+000.240144D+010.000000D+000.000000D+00*
 *                                                                     0.101376D+010.814208D+000.105436D+010.000000D+000.000000D+00*
 *                                          77- 80   SP          1.00                                                              *
+                                                                      0.270006D+000.266956D+000.277432D+000.000000D+000.000000D+00 
 *                                          81- 85   D           1.00                                                              *
+                                                                      0.800000D+000.000000D+000.000000D+000.111382D+010.000000D+00 
 *---------------------------------------------------------------------------------------------------------------------------------*
 *     H     -1.48181 -4.80922  0.00000                                                                                            *
+                                               86   S           1.00                                                               
+                                                                      0.187311D+020.214935D+000.000000D+000.000000D+000.000000D+00 
 *                                                                     0.282539D+010.364571D+000.000000D+000.000000D+000.000000D+00*
 *                                                                     0.640122D+000.415051D+000.000000D+000.000000D+000.000000D+00*
 *                                              87   S           1.00                                                              *
+                                                                      0.161278D+000.181381D+000.000000D+000.000000D+000.000000D+00 
 *                                          88- 90   P           1.00                                                              *
+                                                                      0.110000D+010.000000D+000.160576D+010.000000D+000.000000D+00 
 *---------------------------------------------------------------------------------------------------------------------------------*
 *     H      1.48098 -4.80946  0.00000                                                                                            *
+                                               91   S           1.00                                                               
+                                                                      0.187311D+020.214935D+000.000000D+000.000000D+000.000000D+00 
 *                                                                     0.282539D+010.364571D+000.000000D+000.000000D+000.000000D+00*
 *                                                                     0.640122D+000.415051D+000.000000D+000.000000D+000.000000D+00*
 *                                              92   S           1.00                                                              *
+                                                                      0.161278D+000.181381D+000.000000D+000.000000D+000.000000D+00 
 *                                          93- 95   P           1.00                                                              *
+                                                                      0.110000D+010.000000D+000.160576D+010.000000D+000.000000D+00 
 ***********************************************************************************************************************************
    95 basis functions,   173 primitive gaussians,   104 cartesian basis functions
    19 alpha electrons       19 beta electrons
       nuclear repulsion energy       135.4136620798 Hartrees.
 NAtoms=    6 NActive=    6 NUniq=    6 SFac= 1.00D+00 NAtFMM=   60 NAOKFM=F Big=F
   1 Symmetry operations used in ECPInt.
 ECPInt:  NShTT=     561 NPrTT=    2216 LenC2=     559 LenP2D=    1815.
 LDataN:  DoStor=T MaxTD1= 6 Len=  172
 Harris functional with IExCor=  408 diagonalized for initial guess.
 ExpMin= 1.00D-02 ExpMax= 5.48D+03 ExpMxC= 8.25D+02 IAcc=3 IRadAn=         5 AccDes= 0.00D+00
 HarFok:  IExCor=  408 AccDes= 0.00D+00 IRadAn=         5 IDoV= 1
 ScaDFX=  1.000000  1.000000  1.000000  1.000000
 FoFCou: FMM=F IPFlag=           0 FMFlag=      100000 FMFlg1=           0
         NFxFlg=           0 DoJE=T BraDBF=F KetDBF=T FulRan=T
         Omega=  0.000000  0.000000  1.000000  0.000000  0.000000 ICntrl=     500 IOpCl=  0
         NMat0=    1 NMatS0=    1 NMatT0=    0 NMatD0=    1 NMtDS0=    0 NMtDT0=    0
         I1Cent=           4 NGrid=           0.
 Symmetry not used in FoFCou.
 EnCoef did     3 forward-backward iterations
 SCF Done:  E(RB3PW91) =  -285.218266675     A.U. after   13 cycles
             Convg  =    0.3654D-07             -V/T =  2.1365
 NROrb=     95 NOA=    19 NOB=    19 NVA=    76 NVB=    76
   1 Symmetry operations used in ECPInt.
 ECPInt:  NShTT=     561 NPrTT=    2216 LenC2=     559 LenP2D=    1815.
 LDataN:  DoStor=T MaxTD1= 7 Len=  274
 Symmetrizing basis deriv contribution to polar:
 IMax=3 JMax=2 DiffMx= 0.00D+00
 Calling FoFCou, ICntrl=  3107 FMM=F I1Cent=   0 AccDes= 0.00D+00.
 End of G2Drv Frequency-dependent properties file   721 does not exist.
 End of G2Drv Frequency-dependent properties file   722 does not exist.
          IDoAtm=111111
 End of Minotr Frequency-dependent properties file   721 does not exist.
 End of Minotr Frequency-dependent properties file   722 does not exist.

 **********************************************************************

            Population analysis using the SCF density.

 **********************************************************************

 Alpha  occ. eigenvalues --  -19.27490 -19.06769 -19.06766  -2.43817  -1.48293
 Alpha  occ. eigenvalues --   -1.47883  -1.47508  -1.14645  -0.83108  -0.81017
 Alpha  occ. eigenvalues --   -0.66722  -0.55059  -0.44953  -0.31072  -0.29927
 Alpha  occ. eigenvalues --   -0.29175  -0.26998  -0.26118  -0.22829
 Alpha virt. eigenvalues --   -0.07761  -0.04950  -0.04064   0.01831   0.02068
 Alpha virt. eigenvalues --    0.02377   0.02440   0.04556   0.04831   0.08044
 Alpha virt. eigenvalues --    0.09072   0.09916   0.12308   0.12709   0.14257
 Alpha virt. eigenvalues --    0.14401   0.18663   0.18815   0.19427   0.24049
 Alpha virt. eigenvalues --    0.26685   0.50361   0.54046   0.54547   0.56638
 Alpha virt. eigenvalues --    0.67507   0.76614   0.78395   0.84902   0.94394
 Alpha virt. eigenvalues --    0.97560   0.98041   1.04993   1.09153   1.10077
 Alpha virt. eigenvalues --    1.14031   1.16401   1.22433   1.24912   1.27851
 Alpha virt. eigenvalues --    1.34668   1.36081   1.36143   1.38688   1.39047
 Alpha virt. eigenvalues --    1.40872   1.43198   1.52335   1.61139   1.70984
 Alpha virt. eigenvalues --    1.72100   1.81158   1.88242   1.88408   1.95037
 Alpha virt. eigenvalues --    2.00207   2.00628   2.10264   2.17725   2.19333
 Alpha virt. eigenvalues --    2.29670   2.31717   2.36065   2.37444   2.50675
 Alpha virt. eigenvalues --    2.53577   2.54762   2.80806   2.91219   2.94676
 Alpha virt. eigenvalues --    3.29848   3.42911  24.28513  24.55109  24.78768
 Alpha virt. eigenvalues --   35.60157
     Molecular Orbital Coefficients:
                           1         2         3         4         5
                           O         O         O         O         O
     Eigenvalues --   -19.27490 -19.06769 -19.06766  -2.43817  -1.48293
   1 1   Ti 1S         -0.00003  -0.00013   0.00000   0.39422   0.00000
   2        2S         -0.00001  -0.00108  -0.00003   0.71148   0.00000
   3        3S         -0.00055   0.00159   0.00004   0.51920   0.00000
   4        4S          0.00371   0.00872   0.00024   0.00988   0.00000
   5        5S         -0.00144  -0.00313  -0.00009  -0.00498   0.00000
   6        6S          0.00024   0.00068   0.00002   0.00135   0.00000
   7        7PX         0.00000   0.00000   0.00006   0.00000   0.10088
   8        7PY         0.00006  -0.00006   0.00000   0.00125  -0.00001
   9        7PZ         0.00000   0.00000   0.00000   0.00000   0.00000
  10        8PX         0.00000  -0.00001   0.00042   0.00000   0.68592
  11        8PY         0.00027  -0.00035  -0.00001   0.00957  -0.00006
  12        8PZ         0.00000   0.00000   0.00000   0.00000   0.00000
  13        9PX         0.00000   0.00006  -0.00223   0.00000   0.39706
  14        9PY        -0.00024   0.00168   0.00005  -0.00575  -0.00003
  15        9PZ         0.00000   0.00000   0.00000   0.00000   0.00000
  16       10PX         0.00000   0.00015  -0.00553   0.00000   0.00684
  17       10PY        -0.00303   0.00381   0.00011  -0.00156   0.00000
  18       10PZ         0.00000   0.00000   0.00000   0.00000   0.00000
  19       11PX         0.00000  -0.00004   0.00131   0.00000  -0.00164
  20       11PY         0.00096  -0.00078  -0.00002   0.00065   0.00000
  21       11PZ         0.00000   0.00000   0.00000   0.00000   0.00000
  22       12D 0       -0.00005  -0.00021  -0.00001   0.00602   0.00000
  23       12D+1        0.00000   0.00000   0.00000   0.00000   0.00000
  24       12D-1        0.00000   0.00000   0.00000   0.00000   0.00000
  25       12D+2        0.00012   0.00014   0.00000  -0.00409   0.00000
  26       12D-2        0.00000   0.00001  -0.00021   0.00000   0.01193
  27       13D 0       -0.00111  -0.00156  -0.00004   0.00129   0.00000
  28       13D+1        0.00000   0.00000   0.00000   0.00000   0.00000
  29       13D-1        0.00000   0.00000   0.00000   0.00000   0.00000
  30       13D+2       -0.00239   0.00109   0.00003   0.00042   0.00000
  31       13D-2        0.00000   0.00006  -0.00209   0.00000   0.00010
  32       14D 0        0.00014  -0.00028  -0.00001  -0.00046   0.00000
  33       14D+1        0.00000   0.00000   0.00000   0.00000   0.00000
  34       14D-1        0.00000   0.00000   0.00000   0.00000   0.00000
  35       14D+2       -0.00031   0.00066   0.00002  -0.00003   0.00000
  36       14D-2        0.00000   0.00003  -0.00102   0.00000  -0.00192
  37       15F 0        0.00000   0.00000   0.00000   0.00000   0.00000
  38       15F+1        0.00000   0.00001  -0.00034   0.00000  -0.00193
  39       15F-1        0.00034   0.00019   0.00001  -0.00055   0.00000
  40       15F+2        0.00000   0.00000   0.00000   0.00000   0.00000
  41       15F-2        0.00000   0.00000   0.00000   0.00000   0.00000
  42       15F+3        0.00000   0.00000  -0.00007   0.00000  -0.00254
  43       15F-3        0.00058  -0.00054  -0.00002   0.00097   0.00000
  44 2   O  1S          0.00000   0.72298  -0.68382  -0.00550  -0.02699
  45        2S          0.00000   0.02094  -0.01950   0.00884   0.05579
  46        2PX        -0.00006  -0.00072   0.00046  -0.00866  -0.03229
  47        2PY         0.00002  -0.00046   0.00035  -0.00537  -0.02560
  48        2PZ         0.00000   0.00000   0.00000   0.00000   0.00000
  49        3S          0.00005  -0.01163   0.01051   0.00912   0.03865
  50        3PX         0.00063   0.00215  -0.00136  -0.00493  -0.00742
  51        3PY        -0.00022   0.00129  -0.00090  -0.00275  -0.00759
  52        3PZ         0.00000   0.00000   0.00000   0.00000   0.00000
  53        4D 0        0.00010   0.00023  -0.00006  -0.00166  -0.00228
  54        4D+1        0.00000   0.00000   0.00000   0.00000   0.00000
  55        4D-1        0.00000   0.00000   0.00000   0.00000   0.00000
  56        4D+2       -0.00014  -0.00011   0.00013   0.00134   0.00065
  57        4D-2        0.00002  -0.00017   0.00029   0.00251   0.00477
  58 3   O  1S          0.00000   0.68382   0.72297  -0.00550   0.02699
  59        2S          0.00000   0.01982   0.02064   0.00884  -0.05579
  60        2PX         0.00006   0.00069   0.00050   0.00866  -0.03228
  61        2PY         0.00002  -0.00044  -0.00038  -0.00537   0.02560
  62        2PZ         0.00000   0.00000   0.00000   0.00000   0.00000
  63        3S          0.00005  -0.01103  -0.01114   0.00912  -0.03865
  64        3PX        -0.00063  -0.00207  -0.00148   0.00493  -0.00741
  65        3PY        -0.00022   0.00124   0.00097  -0.00275   0.00759
  66        3PZ         0.00000   0.00000   0.00000   0.00000   0.00000
  67        4D 0        0.00010   0.00023   0.00007  -0.00166   0.00228
  68        4D+1        0.00000   0.00000   0.00000   0.00000   0.00000
  69        4D-1        0.00000   0.00000   0.00000   0.00000   0.00000
  70        4D+2       -0.00014  -0.00010  -0.00013   0.00134  -0.00065
  71        4D-2       -0.00002   0.00015   0.00030  -0.00251   0.00477
  72 4   O  1S          0.99496   0.00000   0.00000  -0.00083   0.00000
  73        2S          0.02881  -0.00007   0.00000   0.00103   0.00000
  74        2PX         0.00000   0.00000   0.00000   0.00000   0.00140
  75        2PY        -0.00143   0.00008   0.00000   0.00131   0.00000
  76        2PZ         0.00000   0.00000   0.00000   0.00000   0.00000
  77        3S         -0.01239   0.00033   0.00001   0.00184   0.00000
  78        3PX         0.00000   0.00000   0.00007   0.00000   0.00332
  79        3PY        -0.00200  -0.00027  -0.00001   0.00252   0.00000
  80        3PZ         0.00000   0.00000   0.00000   0.00000   0.00000
  81        4D 0       -0.00066   0.00007   0.00000  -0.00049   0.00000
  82        4D+1        0.00000   0.00000   0.00000   0.00000   0.00000
  83        4D-1        0.00000   0.00000   0.00000   0.00000   0.00000
  84        4D+2        0.00076  -0.00007   0.00000  -0.00080   0.00000
  85        4D-2        0.00000   0.00000  -0.00013   0.00000   0.00085
  86 5   H  1S         -0.00105  -0.00007   0.00003   0.00015   0.00007
  87        2S          0.00114   0.00023   0.00016   0.00022   0.00162
  88        3PX        -0.00151  -0.00005   0.00005   0.00008  -0.00015
  89        3PY        -0.00102   0.00005   0.00001  -0.00008   0.00013
  90        3PZ         0.00000   0.00000   0.00000   0.00000   0.00000
  91 6   H  1S         -0.00105  -0.00007  -0.00004   0.00015  -0.00007
  92        2S          0.00114   0.00024  -0.00014   0.00022  -0.00162
  93        3PX         0.00151   0.00005   0.00005  -0.00008  -0.00015
  94        3PY        -0.00102   0.00005  -0.00001  -0.00008  -0.00013
  95        3PZ         0.00000   0.00000   0.00000   0.00000   0.00000
                           6         7         8         9        10
                           O         O         O         O         O
     Eigenvalues --    -1.47883  -1.47508  -1.14645  -0.83108  -0.81017
   1 1   Ti 1S         -0.00499   0.00000  -0.00905  -0.06660   0.00000
   2        2S         -0.00350   0.00000  -0.02048  -0.15480   0.00000
   3        3S         -0.02031   0.00000  -0.00705  -0.07611   0.00000
   4        4S         -0.00316   0.00000  -0.00557   0.02111   0.00000
   5        5S          0.00035   0.00000   0.00710   0.01252   0.00000
   6        6S         -0.00011   0.00000   0.00009  -0.00174   0.00000
   7        7PX         0.00001   0.00000   0.00000   0.00000   0.03194
   8        7PY         0.10351   0.00000   0.00731  -0.01953   0.00000
   9        7PZ         0.00000   0.10565   0.00000   0.00000   0.00000
  10        8PX         0.00006   0.00000   0.00000  -0.00002   0.22802
  11        8PY         0.70345   0.00000   0.05089  -0.13944  -0.00003
  12        8PZ         0.00000   0.71795   0.00000   0.00000   0.00000
  13        9PX         0.00004   0.00000   0.00000  -0.00001   0.11558
  14        9PY         0.40211   0.00000   0.02470  -0.07028  -0.00002
  15        9PZ         0.00000   0.40781   0.00000   0.00000   0.00000
  16       10PX         0.00000   0.00000   0.00000   0.00000   0.00126
  17       10PY         0.00759   0.00000   0.00795  -0.00986   0.00000
  18       10PZ         0.00000   0.01000   0.00000   0.00000   0.00000
  19       11PX         0.00000   0.00000   0.00000   0.00000  -0.01023
  20       11PY        -0.00146   0.00000  -0.00759   0.00771   0.00000
  21       11PZ         0.00000  -0.00240   0.00000   0.00000   0.00000
  22       12D 0       -0.00464   0.00000  -0.00615  -0.07429   0.00000
  23       12D+1        0.00000   0.00000   0.00000   0.00000   0.00000
  24       12D-1        0.00000  -0.00089   0.00000   0.00000   0.00000
  25       12D+2        0.00432   0.00000  -0.00862   0.05597  -0.00003
  26       12D-2        0.00000   0.00000   0.00000  -0.00001  -0.11442
  27       13D 0       -0.00014   0.00000   0.00190  -0.00634   0.00000
  28       13D+1        0.00000   0.00000   0.00000   0.00000   0.00000
  29       13D-1        0.00000  -0.00402   0.00000   0.00000   0.00000
  30       13D+2        0.00593   0.00000   0.00600   0.00820   0.00000
  31       13D-2        0.00000   0.00000   0.00000   0.00000  -0.01611
  32       14D 0        0.00080   0.00000  -0.00206  -0.00288   0.00000
  33       14D+1        0.00000   0.00000   0.00000   0.00000   0.00000
  34       14D-1        0.00000   0.00086   0.00000   0.00000   0.00000
  35       14D+2       -0.00129   0.00000  -0.00173   0.00104   0.00000
  36       14D-2        0.00000   0.00000   0.00000   0.00000  -0.00277
  37       15F 0        0.00000   0.00166   0.00000   0.00000   0.00000
  38       15F+1        0.00000   0.00000   0.00000   0.00000   0.00985
  39       15F-1       -0.00064   0.00000   0.00032  -0.00546   0.00000
  40       15F+2        0.00000  -0.00064   0.00000   0.00000   0.00000
  41       15F-2        0.00000   0.00000   0.00000   0.00000   0.00000
  42       15F+3        0.00000   0.00000   0.00000   0.00001   0.00075
  43       15F-3        0.00355   0.00000   0.00082   0.01610   0.00000
  44 2   O  1S         -0.01671   0.00000  -0.00236  -0.16058   0.16097
  45        2S          0.03445   0.00000   0.00499   0.35216  -0.35664
  46        2PX        -0.02535   0.00000  -0.00235  -0.02737   0.02441
  47        2PY        -0.00684   0.00000  -0.00046  -0.02760   0.01229
  48        2PZ         0.00000   0.00978   0.00000   0.00000   0.00000
  49        3S          0.02263   0.00000   0.00325   0.38884  -0.39165
  50        3PX        -0.00723   0.00000  -0.00251  -0.03078   0.02455
  51        3PY         0.00053   0.00000   0.00020  -0.02472   0.01894
  52        3PZ         0.00000   0.00444   0.00000   0.00000   0.00000
  53        4D 0       -0.00150   0.00000  -0.00038  -0.00263   0.00135
  54        4D+1        0.00000  -0.00207   0.00000   0.00000   0.00000
  55        4D-1        0.00000  -0.00127   0.00000   0.00000   0.00000
  56        4D+2        0.00301   0.00000   0.00065   0.00193  -0.00333
  57        4D-2        0.00159   0.00000   0.00006   0.00515  -0.00450
  58 3   O  1S         -0.01671   0.00000  -0.00236  -0.16057  -0.16097
  59        2S          0.03446   0.00000   0.00499   0.35214   0.35666
  60        2PX         0.02535   0.00000   0.00235   0.02736   0.02441
  61        2PY        -0.00685   0.00000  -0.00047  -0.02761  -0.01230
  62        2PZ         0.00000   0.00978   0.00000   0.00000   0.00000
  63        3S          0.02263   0.00000   0.00325   0.38882   0.39167
  64        3PX         0.00723   0.00000   0.00251   0.03078   0.02455
  65        3PY         0.00052   0.00000   0.00020  -0.02473  -0.01895
  66        3PZ         0.00000   0.00444   0.00000   0.00000   0.00000
  67        4D 0       -0.00150   0.00000  -0.00038  -0.00263  -0.00135
  68        4D+1        0.00000   0.00207   0.00000   0.00000   0.00000
  69        4D-1        0.00000  -0.00127   0.00000   0.00000   0.00000
  70        4D+2        0.00301   0.00000   0.00066   0.00193   0.00332
  71        4D-2       -0.00160   0.00000  -0.00006  -0.00515  -0.00450
  72 4   O  1S          0.01072   0.00000  -0.21431   0.00194   0.00000
  73        2S         -0.02177   0.00000   0.47286  -0.00466   0.00000
  74        2PX         0.00000   0.00000  -0.00001   0.00000   0.00736
  75        2PY        -0.01044   0.00000  -0.09419   0.01551   0.00000
  76        2PZ         0.00000   0.00184   0.00000   0.00000   0.00000
  77        3S         -0.02242   0.00000   0.45080  -0.00482   0.00000
  78        3PX         0.00000   0.00000   0.00000   0.00000   0.00338
  79        3PY        -0.00746   0.00000  -0.01654   0.01024   0.00000
  80        3PZ         0.00000   0.00129   0.00000   0.00000   0.00000
  81        4D 0        0.00149   0.00000  -0.00815  -0.00009   0.00000
  82        4D+1        0.00000   0.00000   0.00000   0.00000   0.00000
  83        4D-1        0.00000   0.00091   0.00000   0.00000   0.00000
  84        4D+2        0.00162   0.00000  -0.00367   0.00000   0.00000
  85        4D-2        0.00000   0.00000   0.00000   0.00000   0.00100
  86 5   H  1S         -0.00293   0.00000   0.14444  -0.00521  -0.00313
  87        2S          0.00056   0.00000   0.00528  -0.00201   0.00013
  88        3PX        -0.00049   0.00000   0.02092  -0.00055  -0.00037
  89        3PY        -0.00018   0.00000   0.01148  -0.00030  -0.00026
  90        3PZ         0.00000   0.00002   0.00000   0.00000   0.00000
  91 6   H  1S         -0.00293   0.00000   0.14444  -0.00521   0.00313
  92        2S          0.00056   0.00000   0.00528  -0.00201  -0.00013
  93        3PX         0.00049   0.00000  -0.02092   0.00055  -0.00037
  94        3PY        -0.00018   0.00000   0.01148  -0.00030   0.00026
  95        3PZ         0.00000   0.00002   0.00000   0.00000   0.00000
                          11        12        13        14        15
                           O         O         O         O         O
     Eigenvalues --    -0.66722  -0.55059  -0.44953  -0.31072  -0.29927
   1 1   Ti 1S          0.00000  -0.02821   0.00000   0.03982   0.00000
   2        2S          0.00000  -0.06583   0.00000   0.09806  -0.00001
   3        3S          0.00000  -0.03820   0.00000   0.06052   0.00000
   4        4S          0.00000   0.08863   0.00000  -0.14084   0.00001
   5        5S          0.00000  -0.01062   0.00000   0.08255   0.00000
   6        6S          0.00000  -0.00166   0.00000  -0.01540   0.00000
   7        7PX        -0.00226   0.00000   0.00000   0.00000  -0.01180
   8        7PY         0.00000   0.01297   0.00000  -0.00256   0.00000
   9        7PZ         0.00000   0.00000  -0.00339   0.00000   0.00000
  10        8PX        -0.01623   0.00001   0.00000   0.00000  -0.08828
  11        8PY         0.00000   0.09400   0.00000  -0.01769   0.00001
  12        8PZ         0.00000   0.00000  -0.02483   0.00000   0.00000
  13        9PX        -0.00702   0.00000   0.00000   0.00000  -0.03588
  14        9PY         0.00000   0.03751   0.00000  -0.00522   0.00000
  15        9PZ         0.00000   0.00000  -0.00642   0.00000   0.00000
  16       10PX         0.00629   0.00000   0.00000   0.00001  -0.09198
  17       10PY         0.00000  -0.05555   0.00000   0.09242   0.00001
  18       10PZ         0.00000   0.00000   0.03360   0.00000   0.00000
  19       11PX         0.00301   0.00000   0.00000   0.00000  -0.03275
  20       11PY         0.00000   0.01190   0.00000   0.01717   0.00000
  21       11PZ         0.00000   0.00000   0.01449   0.00000   0.00000
  22       12D 0        0.00000  -0.03867   0.00000   0.13875  -0.00001
  23       12D+1        0.00000   0.00000   0.00000   0.00000   0.00000
  24       12D-1        0.00000   0.00000  -0.04818   0.00000   0.00000
  25       12D+2        0.00000  -0.07278   0.00000  -0.32443   0.00011
  26       12D-2       -0.01401   0.00001   0.00000   0.00009   0.42604
  27       13D 0        0.00000  -0.01538   0.00000   0.04902   0.00000
  28       13D+1        0.00000   0.00000   0.00000   0.00000   0.00000
  29       13D-1        0.00000   0.00000  -0.01979   0.00000   0.00000
  30       13D+2        0.00000  -0.02423   0.00000  -0.14010   0.00004
  31       13D-2       -0.00699   0.00000   0.00000   0.00004   0.14506
  32       14D 0        0.00000  -0.00200   0.00000  -0.01276   0.00000
  33       14D+1        0.00000   0.00000   0.00000   0.00000   0.00000
  34       14D-1        0.00000   0.00000  -0.04043   0.00000   0.00000
  35       14D+2        0.00000  -0.00509   0.00000  -0.01068  -0.00001
  36       14D-2       -0.00548   0.00000   0.00000   0.00000  -0.02640
  37       15F 0        0.00000   0.00000  -0.00337   0.00000   0.00000
  38       15F+1       -0.00039   0.00000   0.00000   0.00000  -0.00956
  39       15F-1        0.00000   0.00505   0.00000   0.00057   0.00000
  40       15F+2        0.00000   0.00000  -0.00511   0.00000   0.00000
  41       15F-2        0.00000   0.00000   0.00000   0.00000   0.00000
  42       15F+3       -0.00197   0.00000   0.00000  -0.00001  -0.01316
  43       15F-3        0.00000   0.00866   0.00000  -0.01276   0.00001
  44 2   O  1S         -0.00284   0.00666   0.00000  -0.02028   0.01845
  45        2S          0.00576  -0.01509   0.00000   0.04328  -0.03632
  46        2PX         0.00390  -0.01324   0.00000   0.05232  -0.38665
  47        2PY        -0.00001   0.00504   0.00000   0.37974  -0.01717
  48        2PZ         0.00000   0.00000  -0.00558   0.00000   0.00000
  49        3S          0.01040  -0.02417   0.00000   0.10564  -0.09471
  50        3PX         0.00054  -0.00475   0.00000   0.02682  -0.23418
  51        3PY        -0.00036   0.00453   0.00000   0.23063  -0.00138
  52        3PZ         0.00000   0.00000  -0.00210   0.00000   0.00000
  53        4D 0        0.00006  -0.00022   0.00000   0.00495  -0.00410
  54        4D+1        0.00000   0.00000   0.00061   0.00000   0.00000
  55        4D-1        0.00000   0.00000   0.00028   0.00000   0.00000
  56        4D+2       -0.00053   0.00115   0.00000   0.01234   0.01224
  57        4D-2       -0.00002  -0.00094   0.00000  -0.01259   0.00666
  58 3   O  1S          0.00285   0.00666   0.00000  -0.02028  -0.01845
  59        2S         -0.00576  -0.01510   0.00000   0.04328   0.03632
  60        2PX         0.00390   0.01325   0.00000  -0.05222  -0.38663
  61        2PY         0.00001   0.00503   0.00000   0.37975   0.01728
  62        2PZ         0.00000   0.00000  -0.00558   0.00000   0.00000
  63        3S         -0.01041  -0.02418   0.00000   0.10564   0.09471
  64        3PX         0.00054   0.00475   0.00000  -0.02676  -0.23417
  65        3PY         0.00035   0.00453   0.00000   0.23063   0.00144
  66        3PZ         0.00000   0.00000  -0.00210   0.00000   0.00000
  67        4D 0       -0.00006  -0.00022   0.00000   0.00495   0.00410
  68        4D+1        0.00000   0.00000  -0.00061   0.00000   0.00000
  69        4D-1        0.00000   0.00000   0.00028   0.00000   0.00000
  70        4D+2        0.00053   0.00115   0.00000   0.01235  -0.01224
  71        4D-2       -0.00002   0.00094   0.00000   0.01258   0.00666
  72 4   O  1S          0.00000  -0.06107   0.00000   0.00061   0.00000
  73        2S          0.00000   0.13436   0.00000  -0.00190   0.00000
  74        2PX         0.52694   0.00005   0.00000   0.00000   0.02148
  75        2PY        -0.00004   0.56279   0.00000  -0.01482   0.00000
  76        2PZ         0.00000   0.00000   0.64064   0.00000   0.00000
  77        3S          0.00000   0.25101   0.00000  -0.00270   0.00001
  78        3PX         0.27409   0.00003   0.00000   0.00000   0.01228
  79        3PY        -0.00002   0.36845   0.00000  -0.01741   0.00000
  80        3PZ         0.00000   0.00000   0.46910   0.00000   0.00000
  81        4D 0        0.00000   0.00622   0.00000  -0.00094   0.00000
  82        4D+1        0.00000   0.00000   0.00000   0.00000   0.00000
  83        4D-1        0.00000   0.00000  -0.01539   0.00000   0.00000
  84        4D+2        0.00000   0.00903   0.00000  -0.00360   0.00000
  85        4D-2       -0.02023   0.00000   0.00000   0.00000  -0.00805
  86 5   H  1S         -0.24034  -0.13779   0.00000   0.00259  -0.01750
  87        2S         -0.09757  -0.07853   0.00000   0.00234  -0.02139
  88        3PX        -0.00951  -0.01487   0.00000   0.00059   0.00022
  89        3PY        -0.01632   0.00638   0.00000  -0.00026   0.00030
  90        3PZ         0.00000   0.00000   0.02065   0.00000   0.00000
  91 6   H  1S          0.24034  -0.13779   0.00000   0.00260   0.01750
  92        2S          0.09757  -0.07853   0.00000   0.00235   0.02139
  93        3PX        -0.00951   0.01487   0.00000  -0.00059   0.00022
  94        3PY         0.01633   0.00638   0.00000  -0.00026  -0.00030
  95        3PZ         0.00000   0.00000   0.02065   0.00000   0.00000
                          16        17        18        19        20
                           O         O         O         O         V
     Eigenvalues --    -0.29175  -0.26998  -0.26118  -0.22829  -0.07761
   1 1   Ti 1S          0.00000   0.00000  -0.05898   0.00000   0.07406
   2        2S          0.00000   0.00000  -0.14915   0.00000   0.17344
   3        3S          0.00000   0.00000  -0.07313   0.00000   0.15715
   4        4S          0.00000   0.00000   0.12021   0.00000  -0.31536
   5        5S          0.00000   0.00000  -0.13490   0.00000  -0.30416
   6        6S          0.00000   0.00000   0.02364   0.00000  -0.21856
   7        7PX         0.00000   0.00000   0.00000  -0.02190   0.00000
   8        7PY         0.00000   0.00000  -0.01992   0.00000  -0.00210
   9        7PZ         0.00000  -0.01580   0.00000   0.00000   0.00000
  10        8PX         0.00000   0.00000  -0.00002  -0.16319  -0.00001
  11        8PY         0.00000   0.00000  -0.14814   0.00002  -0.01550
  12        8PZ         0.00000  -0.11660   0.00000   0.00000   0.00000
  13        9PX         0.00000   0.00000  -0.00001  -0.06914   0.00000
  14        9PY         0.00000   0.00000  -0.05806   0.00001  -0.00315
  15        9PZ         0.00000  -0.03200   0.00000   0.00000   0.00000
  16       10PX         0.00000   0.00000   0.00001   0.09488   0.00001
  17       10PY         0.00000   0.00000   0.05330  -0.00001   0.02298
  18       10PZ         0.00000   0.16022   0.00000   0.00000   0.00000
  19       11PX         0.00000   0.00000   0.00000  -0.01477   0.00003
  20       11PY         0.00000   0.00000  -0.01872   0.00000   0.32245
  21       11PZ         0.00000   0.00571   0.00000   0.00000   0.00000
  22       12D 0        0.00000   0.00000  -0.26750   0.00000  -0.35264
  23       12D+1        0.35097   0.00002   0.00000   0.00000   0.00000
  24       12D-1       -0.00004   0.25496   0.00000   0.00000   0.00000
  25       12D+2        0.00000   0.00000  -0.04229   0.00002   0.03275
  26       12D-2        0.00000   0.00000   0.00000   0.07927  -0.00001
  27       13D 0        0.00000   0.00000  -0.06413   0.00000  -0.17661
  28       13D+1        0.16142   0.00001   0.00000   0.00000   0.00000
  29       13D-1       -0.00002   0.10524   0.00000   0.00000   0.00000
  30       13D+2        0.00000   0.00000  -0.05899  -0.00001  -0.00937
  31       13D-2        0.00000   0.00000   0.00001  -0.02679   0.00000
  32       14D 0        0.00000   0.00000   0.02980   0.00000  -0.02281
  33       14D+1        0.05224   0.00000   0.00000   0.00000   0.00000
  34       14D-1       -0.00001   0.02559   0.00000   0.00000   0.00000
  35       14D+2        0.00000   0.00000  -0.06465  -0.00003   0.10177
  36       14D-2        0.00000   0.00000   0.00002  -0.09052  -0.00003
  37       15F 0        0.00000  -0.01846   0.00000   0.00000   0.00000
  38       15F+1        0.00000   0.00000   0.00000  -0.00912   0.00000
  39       15F-1        0.00000   0.00000  -0.00719   0.00000   0.00573
  40       15F+2        0.00001   0.01530   0.00000   0.00000   0.00000
  41       15F-2        0.02115   0.00000   0.00000   0.00000   0.00000
  42       15F+3        0.00000   0.00000   0.00001   0.03098   0.00000
  43       15F-3        0.00000   0.00000   0.01384  -0.00001   0.00734
  44 2   O  1S          0.00000   0.00000   0.01458   0.00804  -0.01251
  45        2S          0.00000   0.00000  -0.03515  -0.02291   0.03731
  46        2PX         0.00000   0.00000  -0.41881   0.00918   0.05374
  47        2PY         0.00000   0.00000   0.03490  -0.45117  -0.00105
  48        2PZ         0.37859   0.39922   0.00000   0.00000   0.00000
  49        3S          0.00000   0.00000  -0.04941  -0.01114   0.04903
  50        3PX         0.00000   0.00000  -0.28611   0.00478   0.05392
  51        3PY         0.00000   0.00000   0.01987  -0.32515   0.00813
  52        3PZ         0.24807   0.27797   0.00000   0.00000   0.00000
  53        4D 0        0.00000   0.00000  -0.00628  -0.00356  -0.00360
  54        4D+1       -0.01425  -0.01502   0.00000   0.00000   0.00000
  55        4D-1       -0.01193  -0.00917   0.00000   0.00000   0.00000
  56        4D+2        0.00000   0.00000   0.01232  -0.00818  -0.00099
  57        4D-2        0.00000   0.00000   0.00351   0.00790   0.00185
  58 3   O  1S          0.00000   0.00000   0.01458  -0.00804  -0.01251
  59        2S          0.00000   0.00000  -0.03515   0.02291   0.03731
  60        2PX         0.00000   0.00000   0.41884   0.00930  -0.05374
  61        2PY         0.00000   0.00000   0.03479   0.45117  -0.00103
  62        2PZ        -0.37857   0.39924   0.00000   0.00000   0.00000
  63        3S          0.00000   0.00000  -0.04942   0.01114   0.04902
  64        3PX         0.00000   0.00000   0.28613   0.00487  -0.05393
  65        3PY         0.00000   0.00000   0.01979   0.32515   0.00815
  66        3PZ        -0.24806   0.27798   0.00000   0.00000   0.00000
  67        4D 0        0.00000   0.00000  -0.00628   0.00356  -0.00360
  68        4D+1       -0.01424   0.01502   0.00000   0.00000   0.00000
  69        4D-1        0.01193  -0.00918   0.00000   0.00000   0.00000
  70        4D+2        0.00000   0.00000   0.01232   0.00818  -0.00099
  71        4D-2        0.00000   0.00000  -0.00351   0.00790  -0.00185
  72 4   O  1S          0.00000   0.00000   0.00988   0.00000  -0.05427
  73        2S          0.00000   0.00000  -0.02175   0.00000   0.13769
  74        2PX         0.00000   0.00000   0.00000  -0.01053  -0.00001
  75        2PY         0.00000   0.00000  -0.04261   0.00000  -0.06142
  76        2PZ         0.00000   0.02432   0.00000   0.00000   0.00000
  77        3S          0.00000   0.00000  -0.06503  -0.00001   0.42024
  78        3PX         0.00000   0.00000   0.00000  -0.00958  -0.00001
  79        3PY         0.00000   0.00000  -0.03888   0.00000  -0.09048
  80        3PZ         0.00000   0.01904   0.00000   0.00000   0.00000
  81        4D 0        0.00000   0.00000  -0.00266   0.00000  -0.00199
  82        4D+1        0.00104   0.00000   0.00000   0.00000   0.00000
  83        4D-1        0.00000  -0.00285   0.00000   0.00000   0.00000
  84        4D+2        0.00000   0.00000  -0.00450   0.00000  -0.00486
  85        4D-2        0.00000   0.00000   0.00000   0.00006   0.00000
  86 5   H  1S          0.00000   0.00000   0.01159   0.00303  -0.05172
  87        2S          0.00000   0.00000   0.01455   0.03080  -0.19795
  88        3PX         0.00000   0.00000   0.00103   0.00118   0.00872
  89        3PY         0.00000   0.00000  -0.00116   0.00020   0.00484
  90        3PZ        -0.00029   0.00095   0.00000   0.00000   0.00000
  91 6   H  1S          0.00000   0.00000   0.01159  -0.00303  -0.05172
  92        2S          0.00000   0.00000   0.01455  -0.03081  -0.19795
  93        3PX         0.00000   0.00000  -0.00103   0.00118  -0.00872
  94        3PY         0.00000   0.00000  -0.00116  -0.00020   0.00485
  95        3PZ         0.00029   0.00095   0.00000   0.00000   0.00000
                          21        22        23        24        25
                           V         V         V         V         V
     Eigenvalues --    -0.04950  -0.04064   0.01831   0.02068   0.02377
   1 1   Ti 1S         -0.04833   0.00000   0.00000   0.01670   0.00000
   2        2S         -0.11065   0.00000   0.00000   0.04557   0.00000
   3        3S         -0.11531   0.00000   0.00000   0.00363   0.00000
   4        4S          0.40984   0.00000   0.00001   0.40142   0.00000
   5        5S         -0.03347   0.00000  -0.00007  -1.47883   0.00000
   6        6S         -0.32523   0.00000   0.00006   1.68310   0.00000
   7        7PX         0.00000   0.00000  -0.00425   0.00000   0.00000
   8        7PY        -0.00778   0.00000   0.00000  -0.00385   0.00000
   9        7PZ         0.00000   0.01445   0.00000   0.00000   0.00000
  10        8PX        -0.00001   0.00000  -0.03195  -0.00001   0.00000
  11        8PY        -0.05886   0.00000   0.00000  -0.02927   0.00000
  12        8PZ         0.00000   0.10920   0.00000   0.00000   0.00000
  13        9PX         0.00000   0.00000  -0.01187   0.00000   0.00000
  14        9PY        -0.01368   0.00000   0.00000   0.00122   0.00000
  15        9PZ         0.00000   0.02006   0.00000   0.00000   0.00000
  16       10PX         0.00000   0.00000  -0.17482   0.00005   0.00000
  17       10PY        -0.09699   0.00000   0.00004   0.12518   0.00000
  18       10PZ         0.00000  -0.29306   0.00000   0.00000   0.00004
  19       11PX         0.00004   0.00000   0.91675  -0.00002   0.00000
  20       11PY         0.41537   0.00000  -0.00011   0.13062   0.00000
  21       11PZ         0.00000  -0.16667   0.00000   0.00000  -0.00025
  22       12D 0        0.48365   0.00000   0.00001  -0.02267   0.00000
  23       12D+1        0.00000   0.00010   0.00000   0.00000   0.78101
  24       12D-1        0.00000   0.70034   0.00000   0.00000  -0.00018
  25       12D+2        0.16415   0.00000   0.00001   0.12733   0.00000
  26       12D-2       -0.00005   0.00000  -0.02343  -0.00005   0.00000
  27       13D 0        0.19817   0.00000   0.00001  -0.05042   0.00000
  28       13D+1        0.00000   0.00004   0.00000   0.00000   0.35086
  29       13D-1        0.00000   0.31863   0.00000   0.00000  -0.00009
  30       13D+2        0.00566   0.00000   0.00000   0.05041   0.00000
  31       13D-2       -0.00001   0.00000  -0.01925  -0.00003   0.00000
  32       14D 0        0.17172   0.00000   0.00000   0.11458   0.00000
  33       14D+1        0.00000   0.00001   0.00000   0.00000  -0.09150
  34       14D-1        0.00000   0.07849   0.00000   0.00000   0.00008
  35       14D+2        0.05229   0.00000  -0.00008   0.04170   0.00000
  36       14D-2       -0.00001   0.00000  -0.33632   0.00000   0.00000
  37       15F 0        0.00000   0.00859   0.00000   0.00000   0.00000
  38       15F+1        0.00000   0.00000   0.00710   0.00000   0.00000
  39       15F-1       -0.00254   0.00000   0.00000  -0.00106   0.00000
  40       15F+2        0.00000   0.00451   0.00000   0.00000  -0.00001
  41       15F-2        0.00000   0.00000   0.00000   0.00000  -0.02158
  42       15F+3        0.00000   0.00000  -0.00519   0.00000   0.00000
  43       15F-3        0.00271   0.00000   0.00000   0.01143   0.00000
  44 2   O  1S          0.00216   0.00000   0.00960   0.00423   0.00000
  45        2S         -0.01395   0.00000  -0.03995  -0.00312   0.00000
  46        2PX        -0.07988   0.00000  -0.07508  -0.01865   0.00000
  47        2PY        -0.01251   0.00000   0.04934   0.00485   0.00000
  48        2PZ         0.00000  -0.10782   0.00000   0.00000  -0.26150
  49        3S          0.02212   0.00000   0.01269  -0.06015   0.00000
  50        3PX        -0.07894   0.00000  -0.07734   0.01886   0.00000
  51        3PY        -0.01288   0.00000   0.04793   0.03025   0.00000
  52        3PZ         0.00000  -0.10591   0.00000   0.00000  -0.26470
  53        4D 0        0.00566   0.00000  -0.00009   0.00204   0.00000
  54        4D+1        0.00000  -0.00658   0.00000   0.00000  -0.00676
  55        4D-1        0.00000   0.00340   0.00000   0.00000  -0.00817
  56        4D+2       -0.00257   0.00000   0.00103  -0.00258   0.00000
  57        4D-2        0.00222   0.00000  -0.00130  -0.00049   0.00000
  58 3   O  1S          0.00216   0.00000  -0.00960   0.00423   0.00000
  59        2S         -0.01395   0.00000   0.03995  -0.00313   0.00000
  60        2PX         0.07987   0.00000  -0.07509   0.01864   0.00000
  61        2PY        -0.01253   0.00000  -0.04932   0.00484   0.00000
  62        2PZ         0.00000  -0.10782   0.00000   0.00000   0.26157
  63        3S          0.02212   0.00000  -0.01269  -0.06016   0.00000
  64        3PX         0.07892   0.00000  -0.07735  -0.01887   0.00000
  65        3PY        -0.01290   0.00000  -0.04791   0.03025   0.00000
  66        3PZ         0.00000  -0.10590   0.00000   0.00000   0.26476
  67        4D 0        0.00566   0.00000   0.00009   0.00204   0.00000
  68        4D+1        0.00000   0.00658   0.00000   0.00000  -0.00676
  69        4D-1        0.00000   0.00340   0.00000   0.00000   0.00817
  70        4D+2       -0.00257   0.00000  -0.00103  -0.00258   0.00000
  71        4D-2       -0.00222   0.00000  -0.00130   0.00049   0.00000
  72 4   O  1S         -0.05305   0.00000   0.00000  -0.03857   0.00000
  73        2S          0.13218   0.00000   0.00000   0.09400   0.00000
  74        2PX        -0.00001   0.00000  -0.21830   0.00000   0.00000
  75        2PY        -0.11135   0.00000   0.00003  -0.03646   0.00000
  76        2PZ         0.00000   0.14833   0.00000   0.00000   0.00001
  77        3S          0.45847   0.00000  -0.00001   0.36298   0.00000
  78        3PX        -0.00001   0.00000  -0.27506   0.00001   0.00000
  79        3PY        -0.16630   0.00000   0.00003  -0.07568   0.00000
  80        3PZ         0.00000   0.12275   0.00000   0.00000   0.00001
  81        4D 0        0.00807   0.00000   0.00000   0.00401   0.00000
  82        4D+1        0.00000   0.00000   0.00000   0.00000   0.00428
  83        4D-1        0.00000  -0.02019   0.00000   0.00000   0.00000
  84        4D+2        0.00168   0.00000   0.00000  -0.00071   0.00000
  85        4D-2        0.00000   0.00000   0.00359   0.00000   0.00000
  86 5   H  1S         -0.06953   0.00000  -0.02472  -0.05418   0.00000
  87        2S         -0.30089   0.00000  -0.34817  -0.21158   0.00000
  88        3PX         0.00985   0.00000   0.00787   0.00541   0.00000
  89        3PY         0.00592   0.00000   0.00548   0.00248   0.00000
  90        3PZ         0.00000   0.00488   0.00000   0.00000  -0.00029
  91 6   H  1S         -0.06953   0.00000   0.02472  -0.05419   0.00000
  92        2S         -0.30089   0.00000   0.34819  -0.21162   0.00000
  93        3PX        -0.00985   0.00000   0.00787  -0.00541   0.00000
  94        3PY         0.00592   0.00000  -0.00549   0.00248   0.00000
  95        3PZ         0.00000   0.00488   0.00000   0.00000   0.00029
                          26        27        28        29        30
                           V         V         V         V         V
     Eigenvalues --     0.02440   0.04556   0.04831   0.08044   0.09072
   1 1   Ti 1S          0.00000   0.00005  -0.03380   0.03062   0.00000
   2        2S          0.00000   0.00011  -0.07110   0.07197   0.00000
   3        3S          0.00000   0.00018  -0.11312   0.08483   0.00000
   4        4S          0.00000  -0.00021   0.09188  -0.92754  -0.00002
   5        5S          0.00000  -0.00096   0.71332   1.49261  -0.00001
   6        6S          0.00000   0.00033  -0.27605  -0.60784   0.00000
   7        7PX         0.00000  -0.02703  -0.00004   0.00000  -0.00395
   8        7PY         0.00000  -0.00001   0.00613   0.00498   0.00000
   9        7PZ        -0.00119   0.00000   0.00000   0.00000   0.00000
  10        8PX         0.00000  -0.20367  -0.00031   0.00001  -0.02976
  11        8PY         0.00000  -0.00005   0.04733   0.03652   0.00000
  12        8PZ        -0.00849   0.00000   0.00000   0.00000   0.00000
  13        9PX         0.00000  -0.10577  -0.00016   0.00001   0.00436
  14        9PY         0.00000   0.00000   0.00888   0.02834   0.00000
  15        9PZ         0.00105   0.00000   0.00000   0.00000   0.00000
  16       10PX         0.00000   0.58921   0.00086  -0.00009   0.38436
  17       10PY         0.00000   0.00057  -0.40894  -0.40337  -0.00005
  18       10PZ        -0.14206   0.00000   0.00000   0.00000   0.00000
  19       11PX         0.00000  -0.26969  -0.00032   0.00014  -0.86137
  20       11PY         0.00000  -0.00101   0.69632   0.77977   0.00016
  21       11PZ         1.00479   0.00000   0.00000   0.00000   0.00000
  22       12D 0        0.00000   0.00047  -0.30900  -0.11899   0.00002
  23       12D+1        0.00023   0.00000   0.00000   0.00000   0.00000
  24       12D-1        0.30070   0.00000   0.00000   0.00000   0.00000
  25       12D+2        0.00000   0.00065  -0.51078   0.53842  -0.00002
  26       12D-2        0.00000  -0.49234  -0.00063  -0.00012  -0.18356
  27       13D 0        0.00000   0.00021  -0.13603  -0.02197   0.00001
  28       13D+1        0.00011   0.00000   0.00000   0.00000   0.00000
  29       13D-1        0.16622   0.00000   0.00000   0.00000   0.00000
  30       13D+2        0.00000   0.00030  -0.25066   0.18538   0.00002
  31       13D-2        0.00000  -0.35787  -0.00048  -0.00004   0.04203
  32       14D 0        0.00000  -0.00026   0.17346  -0.12554  -0.00003
  33       14D+1       -0.00005   0.00000   0.00000   0.00000   0.00000
  34       14D-1       -0.26305   0.00000   0.00000   0.00000   0.00000
  35       14D+2        0.00000  -0.00045   0.26952  -0.08894  -0.00004
  36       14D-2        0.00000  -0.15633  -0.00031   0.00005  -0.25614
  37       15F 0        0.01305   0.00000   0.00000   0.00000   0.00000
  38       15F+1        0.00000   0.00072   0.00000   0.00000  -0.00965
  39       15F-1        0.00000  -0.00001   0.00819   0.00803   0.00000
  40       15F+2       -0.00007   0.00000   0.00000   0.00000   0.00000
  41       15F-2       -0.00001   0.00000   0.00000   0.00000   0.00000
  42       15F+3        0.00000  -0.02290  -0.00004  -0.00001  -0.00157
  43       15F-3        0.00000   0.00002  -0.00866  -0.02834   0.00000
  44 2   O  1S          0.00000  -0.00775   0.02025   0.01975  -0.01611
  45        2S          0.00000   0.00805  -0.05780  -0.05651   0.04552
  46        2PX         0.00000  -0.22992   0.06377  -0.02052  -0.01252
  47        2PY         0.00000   0.05122  -0.11246   0.13823   0.02411
  48        2PZ        -0.13711   0.00000   0.00000   0.00000   0.00000
  49        3S          0.00000   0.10011  -0.09610  -0.07162   0.04478
  50        3PX         0.00000  -0.27341   0.03407  -0.06515   0.01688
  51        3PY         0.00000   0.05364  -0.11113   0.12473   0.04867
  52        3PZ        -0.11894   0.00000   0.00000   0.00000   0.00000
  53        4D 0        0.00000   0.00035  -0.00187  -0.00455   0.00098
  54        4D+1       -0.00113   0.00000   0.00000   0.00000   0.00000
  55        4D-1        0.00158   0.00000   0.00000   0.00000   0.00000
  56        4D+2        0.00000  -0.00449   0.00495  -0.00771  -0.00558
  57        4D-2        0.00000  -0.00114  -0.00624   0.01024  -0.00339
  58 3   O  1S          0.00000   0.00769   0.02027   0.01974   0.01611
  59        2S          0.00000  -0.00787  -0.05782  -0.05651  -0.04552
  60        2PX         0.00000  -0.22974  -0.06451   0.02057  -0.01251
  61        2PY         0.00000  -0.05081  -0.11260   0.13823  -0.02410
  62        2PZ        -0.13698   0.00000   0.00000   0.00000   0.00000
  63        3S          0.00000  -0.09982  -0.09640  -0.07160  -0.04479
  64        3PX         0.00000  -0.27331  -0.03494   0.06521   0.01689
  65        3PY         0.00000  -0.05323  -0.11129   0.12472  -0.04867
  66        3PZ        -0.11880   0.00000   0.00000   0.00000   0.00000
  67        4D 0        0.00000  -0.00034  -0.00187  -0.00455  -0.00098
  68        4D+1        0.00113   0.00000   0.00000   0.00000   0.00000
  69        4D-1        0.00159   0.00000   0.00000   0.00000   0.00000
  70        4D+2        0.00000   0.00447   0.00496  -0.00771   0.00558
  71        4D-2        0.00000  -0.00116   0.00623  -0.01023  -0.00339
  72 4   O  1S          0.00000  -0.00003   0.02191   0.02120   0.00000
  73        2S          0.00000   0.00008  -0.06130  -0.03209  -0.00001
  74        2PX         0.00000   0.08530   0.00011   0.00002  -0.32710
  75        2PY         0.00000   0.00028  -0.18107   0.12469   0.00005
  76        2PZ        -0.07132   0.00000   0.00000   0.00000   0.00000
  77        3S          0.00000   0.00014  -0.13135  -0.32806  -0.00005
  78        3PX         0.00000   0.23773   0.00033   0.00003  -0.53360
  79        3PY         0.00000   0.00030  -0.19561   0.15557   0.00007
  80        3PZ        -0.04879   0.00000   0.00000   0.00000   0.00000
  81        4D 0        0.00000   0.00002  -0.01030   0.00369   0.00000
  82        4D+1        0.00000   0.00000   0.00000   0.00000   0.00000
  83        4D-1       -0.00377   0.00000   0.00000   0.00000   0.00000
  84        4D+2        0.00000   0.00003  -0.01835   0.02090   0.00000
  85        4D-2        0.00000   0.03427   0.00005   0.00000  -0.00387
  86 5   H  1S          0.00000   0.12190   0.01191   0.04581  -0.10565
  87        2S          0.00000   0.47298   0.00203   0.27816  -0.89524
  88        3PX         0.00000  -0.00155   0.00480  -0.00716   0.00583
  89        3PY         0.00000  -0.00890  -0.00030   0.00284   0.01068
  90        3PZ         0.00148   0.00000   0.00000   0.00000   0.00000
  91 6   H  1S          0.00000  -0.12192   0.01155   0.04581   0.10567
  92        2S          0.00000  -0.47288   0.00063   0.27810   0.89537
  93        3PX         0.00000  -0.00153  -0.00480   0.00716   0.00583
  94        3PY         0.00000   0.00890  -0.00027   0.00284  -0.01068
  95        3PZ         0.00148   0.00000   0.00000   0.00000   0.00000
                          31        32        33        34        35
                           V         V         V         V         V
     Eigenvalues --     0.09916   0.12308   0.12709   0.14257   0.14401
   1 1   Ti 1S          0.03777   0.00000   0.00000   0.02443   0.00000
   2        2S          0.08017   0.00000   0.00000   0.04624   0.00000
   3        3S          0.12955   0.00000   0.00000   0.09948   0.00000
   4        4S         -1.25502   0.00000   0.00000  -0.09370   0.00000
   5        5S          2.13422   0.00000   0.00000  -0.28822   0.00000
   6        6S         -0.76396   0.00000   0.00000   0.03061   0.00000
   7        7PX         0.00000   0.00000   0.00000   0.00000   0.00000
   8        7PY         0.00102   0.00000   0.00000   0.00064   0.00000
   9        7PZ         0.00000   0.01239   0.00000   0.00000  -0.01993
  10        8PX         0.00000   0.00000   0.00000   0.00001   0.00000
  11        8PY         0.00746   0.00000   0.00000   0.00505   0.00000
  12        8PZ         0.00000   0.09348  -0.00001   0.00000  -0.15090
  13        9PX         0.00000   0.00000   0.00000   0.00001   0.00000
  14        9PY         0.00425   0.00000   0.00000   0.01430   0.00000
  15        9PZ         0.00000   0.05638  -0.00001   0.00000  -0.07604
  16       10PX         0.00003   0.00000   0.00000   0.00001   0.00000
  17       10PY         0.04562   0.00000   0.00000   0.11301   0.00000
  18       10PZ         0.00000  -0.81935   0.00010   0.00000   1.24767
  19       11PX        -0.00011   0.00000   0.00000  -0.00001   0.00000
  20       11PY        -0.77265   0.00000   0.00000   0.14304   0.00000
  21       11PZ         0.00000   0.73209  -0.00009   0.00000  -0.65105
  22       12D 0       -0.24510   0.00000   0.00000  -0.10922   0.00000
  23       12D+1        0.00000  -0.00005  -0.08030   0.00000   0.00001
  24       12D-1        0.00000  -0.23096   0.00004   0.00000   0.11152
  25       12D+2        0.20297   0.00000   0.00000  -0.03420   0.00000
  26       12D-2       -0.00007   0.00000   0.00000   0.00004   0.00000
  27       13D 0       -0.12003   0.00000   0.00000  -0.12916   0.00000
  28       13D+1        0.00000  -0.00003  -0.09789   0.00000  -0.00001
  29       13D-1        0.00000  -0.15128   0.00003   0.00000  -0.06839
  30       13D+2        0.03364   0.00000   0.00000   0.09402   0.00000
  31       13D-2       -0.00002   0.00000   0.00000   0.00001   0.00000
  32       14D 0        0.28181   0.00000   0.00000   0.87081   0.00000
  33       14D+1        0.00000   0.00026   1.09060   0.00000   0.00009
  34       14D-1        0.00000   0.87423  -0.00027   0.00000   0.62511
  35       14D+2       -0.04804   0.00000   0.00000  -0.66614   0.00000
  36       14D-2       -0.00001   0.00000   0.00000   0.00012   0.00000
  37       15F 0        0.00000  -0.00203   0.00000   0.00000   0.01481
  38       15F+1        0.00000   0.00000   0.00000   0.00000   0.00000
  39       15F-1        0.00144   0.00000   0.00000   0.00066   0.00000
  40       15F+2        0.00000  -0.00622   0.00000   0.00000  -0.01073
  41       15F-2        0.00000   0.00000  -0.01356   0.00000   0.00000
  42       15F+3       -0.00001   0.00000   0.00000   0.00001   0.00000
  43       15F-3       -0.01374   0.00000   0.00000   0.01817   0.00000
  44 2   O  1S          0.00533   0.00000   0.00000  -0.01917   0.00000
  45        2S         -0.01916   0.00000   0.00000   0.03840   0.00000
  46        2PX         0.00470   0.00000   0.00000   0.09627   0.00000
  47        2PY         0.11193   0.00000   0.00000  -0.06673   0.00000
  48        2PZ         0.00000   0.03168  -0.11319   0.00000  -0.19391
  49        3S          0.00894   0.00000   0.00000   0.16254   0.00000
  50        3PX        -0.00093   0.00000   0.00000   0.15813   0.00000
  51        3PY         0.09174   0.00000   0.00000  -0.03779   0.00000
  52        3PZ         0.00000   0.04922  -0.14886   0.00000  -0.23355
  53        4D 0       -0.00153   0.00000   0.00000   0.00522   0.00000
  54        4D+1        0.00000   0.00318   0.00692   0.00000  -0.00465
  55        4D-1        0.00000   0.00544   0.00001   0.00000   0.00356
  56        4D+2       -0.00181   0.00000   0.00000  -0.00249   0.00000
  57        4D-2        0.00368   0.00000   0.00000  -0.00104   0.00000
  58 3   O  1S          0.00533   0.00000   0.00000  -0.01917   0.00000
  59        2S         -0.01916   0.00000   0.00000   0.03839   0.00000
[...]
  77        3S         -0.00002   0.00000  -0.00003  -0.00007  -0.00027
  78        3PX        -0.00007   0.00000   0.00000   0.00006  -0.00083
  79        3PY         0.00003   0.00001  -0.00052   0.00045   0.00030
  80        3PZ        -0.00003   0.00000  -0.00003   0.00012  -0.00030
  81        4D 0        0.00000   0.00000   0.00000  -0.00001   0.00001
  82        4D+1        0.00000   0.00000   0.00000   0.00000   0.00000
  83        4D-1        0.00000   0.00000   0.00000   0.00000   0.00001
  84        4D+2        0.00000   0.00000   0.00000  -0.00001  -0.00001
  85        4D-2        0.00000   0.00000   0.00000  -0.00001   0.00004
  86 5   H  1S          0.00000   0.00000  -0.00001   0.00002  -0.00012
  87        2S         -0.00022   0.00000  -0.00007   0.00018  -0.00142
  88        3PX         0.00000   0.00000   0.00000   0.00000   0.00001
  89        3PY         0.00000   0.00000   0.00000   0.00000   0.00002
  90        3PZ         0.00000   0.00000   0.00000   0.00000   0.00000
  91 6   H  1S          0.00000   0.00000   0.00000   0.00000   0.00000
  92        2S          0.00000   0.00000   0.00004  -0.00021   0.00000
  93        3PX         0.00000   0.00000   0.00000   0.00000   0.00000
  94        3PY         0.00000   0.00000   0.00000   0.00000   0.00000
  95        3PZ         0.00000   0.00000   0.00000   0.00000   0.00000
                          66        67        68        69        70
  66        3PZ         0.31562
  67        4D 0        0.00000   0.00075
  68        4D+1        0.00000   0.00000   0.00071
  69        4D-1        0.00000   0.00000   0.00000   0.00041
  70        4D+2        0.00000   0.00000   0.00000   0.00000   0.00068
  71        4D-2        0.00000   0.00000   0.00000   0.00000   0.00000
  72 4   O  1S          0.00000   0.00000   0.00000   0.00000   0.00000
  73        2S          0.00000   0.00000   0.00000   0.00000   0.00000
  74        2PX         0.00000   0.00000   0.00000   0.00000   0.00000
  75        2PY         0.00001   0.00000   0.00000   0.00000   0.00000
  76        2PZ         0.00000   0.00000   0.00000   0.00000   0.00000
  77        3S          0.00000   0.00000   0.00000   0.00000   0.00000
  78        3PX         0.00001   0.00000   0.00000   0.00000   0.00000
  79        3PY         0.00012   0.00001   0.00000   0.00000   0.00001
  80        3PZ        -0.00011   0.00000   0.00000   0.00000   0.00000
  81        4D 0        0.00000   0.00000   0.00000   0.00000   0.00000
  82        4D+1        0.00000   0.00000   0.00000   0.00000   0.00000
  83        4D-1        0.00000   0.00000   0.00000   0.00000   0.00000
  84        4D+2        0.00000   0.00000   0.00000   0.00000   0.00000
  85        4D-2        0.00000   0.00000   0.00000   0.00000   0.00000
  86 5   H  1S          0.00000   0.00000   0.00000   0.00000   0.00000
  87        2S          0.00001   0.00000   0.00000   0.00000  -0.00001
  88        3PX         0.00000   0.00000   0.00000   0.00000   0.00000
  89        3PY         0.00000   0.00000   0.00000   0.00000   0.00000
  90        3PZ         0.00000   0.00000   0.00000   0.00000   0.00000
  91 6   H  1S          0.00000   0.00000   0.00000   0.00000   0.00000
  92        2S          0.00000   0.00000   0.00000   0.00000   0.00000
  93        3PX         0.00000   0.00000   0.00000   0.00000   0.00000
  94        3PY         0.00000   0.00000   0.00000   0.00000   0.00000
  95        3PZ         0.00000   0.00000   0.00000   0.00000   0.00000
                          71        72        73        74        75
  71        4D-2        0.00076
  72 4   O  1S          0.00000   2.08038
  73        2S          0.00000  -0.03856   0.49406
  74        2PX         0.00000   0.00000   0.00000   0.56310
  75        2PY         0.00000   0.00000   0.00000   0.00000   0.76455
  76        2PZ         0.00000   0.00000   0.00000   0.00000   0.00000
  77        3S          0.00000  -0.04238   0.38641   0.00000   0.00000
  78        3PX         0.00000   0.00000   0.00000   0.14804   0.00000
  79        3PY         0.00001   0.00000   0.00000   0.00000   0.27047
  80        3PZ         0.00000   0.00000   0.00000   0.00000   0.00000
  81        4D 0        0.00000   0.00000   0.00000   0.00000   0.00000
  82        4D+1        0.00000   0.00000   0.00000   0.00000   0.00000
  83        4D-1        0.00000   0.00000   0.00000   0.00000   0.00000
  84        4D+2        0.00000   0.00000   0.00000   0.00000   0.00000
  85        4D-2        0.00000   0.00000   0.00000   0.00000   0.00000
  86 5   H  1S          0.00000  -0.00149   0.02261   0.05735   0.00501
  87        2S          0.00000   0.00086  -0.00889   0.01237   0.00190
  88        3PX         0.00000  -0.00043   0.00405   0.00179   0.00075
  89        3PY         0.00000  -0.00003   0.00028   0.00060   0.00226
  90        3PZ         0.00000  -0.00023   0.00232   0.00369   0.00053
  91 6   H  1S          0.00000  -0.00149   0.02261   0.05735   0.00502
  92        2S          0.00000   0.00086  -0.00889   0.01236   0.00191
  93        3PX         0.00000  -0.00043   0.00405   0.00178   0.00075
  94        3PY         0.00000  -0.00003   0.00028   0.00060   0.00226
  95        3PZ         0.00000  -0.00023   0.00232   0.00369   0.00053
                          76        77        78        79        80
  76        2PZ         0.70175
  77        3S          0.00000   0.54898
  78        3PX         0.00000   0.00000   0.15496
  79        3PY         0.00000   0.00000   0.00000   0.38261
  80        3PZ         0.23033   0.00000   0.00000   0.00000   0.30320
  81        4D 0        0.00000   0.00000   0.00000   0.00000   0.00000
  82        4D+1        0.00000   0.00000   0.00000   0.00000   0.00000
  83        4D-1        0.00000   0.00000   0.00000   0.00000   0.00000
  84        4D+2        0.00000   0.00000   0.00000   0.00000   0.00000
  85        4D-2        0.00000   0.00000   0.00000   0.00000   0.00000
  86 5   H  1S          0.02646   0.02335   0.06213   0.00567   0.03272
  87        2S          0.00674  -0.02955   0.02122   0.00408   0.01397
  88        3PX         0.00441   0.00233  -0.00008   0.00029   0.00199
  89        3PY         0.00050   0.00026   0.00024   0.00377   0.00028
  90        3PZ        -0.00014   0.00194   0.00148   0.00027   0.00102
  91 6   H  1S          0.02646   0.02335   0.06212   0.00568   0.03272
  92        2S          0.00674  -0.02955   0.02121   0.00408   0.01397
  93        3PX         0.00441   0.00233  -0.00008   0.00029   0.00199
  94        3PY         0.00050   0.00026   0.00024   0.00377   0.00028
  95        3PZ        -0.00014   0.00194   0.00148   0.00028   0.00102
                          81        82        83        84        85
  81        4D 0        0.00115
  82        4D+1        0.00000   0.00120
  83        4D-1        0.00000   0.00000   0.00088
  84        4D+2        0.00000   0.00000   0.00000   0.00009
  85        4D-2        0.00000   0.00000   0.00000   0.00000   0.00013
  86 5   H  1S         -0.00012   0.00343   0.00029   0.00024   0.00027
  87        2S         -0.00001   0.00026   0.00003   0.00003   0.00002
  88        3PX         0.00010   0.00009   0.00005   0.00000   0.00001
  89        3PY         0.00001   0.00004   0.00011  -0.00002  -0.00001
  90        3PZ         0.00012  -0.00002   0.00000   0.00000   0.00002
  91 6   H  1S         -0.00012   0.00343   0.00029   0.00024   0.00027
  92        2S         -0.00001   0.00026   0.00003   0.00003   0.00002
  93        3PX         0.00010   0.00009   0.00005   0.00000   0.00001
  94        3PY         0.00001   0.00004   0.00011  -0.00002  -0.00001
  95        3PZ         0.00012  -0.00002   0.00000   0.00000   0.00002
                          86        87        88        89        90
  86 5   H  1S          0.19450
  87        2S          0.04710   0.03557
  88        3PX         0.00000   0.00000   0.00146
  89        3PY         0.00000   0.00000   0.00000   0.00072
  90        3PZ         0.00000   0.00000   0.00000   0.00000   0.00095
  91 6   H  1S         -0.00150  -0.00470   0.00032   0.00000   0.00000
  92        2S         -0.00470  -0.00215   0.00012   0.00000   0.00000
  93        3PX         0.00032   0.00012   0.00009   0.00000   0.00000
  94        3PY         0.00000   0.00000   0.00000   0.00000   0.00000
  95        3PZ         0.00000   0.00000   0.00000   0.00000   0.00000
                          91        92        93        94        95
  91 6   H  1S          0.19450
  92        2S          0.04710   0.03557
  93        3PX         0.00000   0.00000   0.00146
  94        3PY         0.00000   0.00000   0.00000   0.00072
  95        3PZ         0.00000   0.00000   0.00000   0.00000   0.00095
     Gross orbital populations:
                           1
   1 1   Ti 1S         -0.30260
   2        2S          1.31496
   3        3S          0.99256
   4        4S          0.12114
   5        5S          0.00825
   6        6S         -0.00287
   7        7PX        -0.07385
   8        7PY        -0.07239
   9        7PZ        -0.07169
  10        8PX         1.39333
  11        8PY         1.37628
  12        8PZ         1.36525
  13        9PX         0.68925
  14        9PY         0.70238
  15        9PZ         0.70652
  16       10PX         0.09521
  17       10PY         0.14097
  18       10PZ         0.07847
  19       11PX         0.01737
  20       11PY         0.01358
  21       11PZ         0.00917
  22       12D 0        0.25141
  23       12D+1        0.52581
  24       12D-1        0.20583
  25       12D+2        0.37025
  26       12D-2        0.37800
  27       13D 0        0.14950
  28       13D+1        0.13411
  29       13D-1        0.08493
  30       13D+2        0.12582
  31       13D-2        0.19171
  32       14D 0        0.02772
  33       14D+1        0.04255
  34       14D-1        0.02324
  35       14D+2        0.03184
  36       14D-2        0.03825
  37       15F 0        0.00469
  38       15F+1        0.01536
  39       15F-1        0.00198
  40       15F+2        0.01124
  41       15F-2        0.00930
  42       15F+3        0.01142
  43       15F-3        0.01229
  44 2   O  1S          1.99744
  45        2S          0.92974
  46        2PX         0.92939
  47        2PY         0.89827
  48        2PZ         0.96290
  49        3S          1.02480
  50        3PX         0.53627
  51        3PY         0.60996
  52        3PZ         0.62428
  53        4D 0        0.00297
  54        4D+1        0.00324
  55        4D-1        0.00158
  56        4D+2        0.00299
  57        4D-2        0.00326
  58 3   O  1S          1.99744
  59        2S          0.92974
  60        2PX         0.92940
  61        2PY         0.89828
  62        2PZ         0.96290
  63        3S          1.02480
  64        3PX         0.53628
  65        3PY         0.60995
  66        3PZ         0.62428
  67        4D 0        0.00297
  68        4D+1        0.00324
  69        4D-1        0.00158
  70        4D+2        0.00299
  71        4D-2        0.00326
  72 4   O  1S          1.99670
  73        2S          0.89097
  74        2PX         0.86272
  75        2PY         1.07637
  76        2PZ         1.01379
  77        3S          0.91682
  78        3PX         0.46964
  79        3PY         0.72002
  80        3PZ         0.64998
  81        4D 0        0.00140
  82        4D+1        0.00882
  83        4D-1        0.00211
  84        4D+2        0.00090
  85        4D-2        0.00126
  86 5   H  1S          0.46878
  87        2S          0.08539
  88        3PX         0.01724
  89        3PY         0.00946
  90        3PZ         0.01200
  91 6   H  1S          0.46878
  92        2S          0.08539
  93        3PX         0.01724
  94        3PY         0.00946
  95        3PZ         0.01200
          Condensed to atoms (all electrons):
 Mulliken atomic charges:
              1
     1  Ti   0.851448
     2  O   -0.527109
     3  O   -0.527124
     4  O   -0.611497
     5  H    0.407142
     6  H    0.407140
 Sum of Mulliken atomic charges =   0.00000
 Mulliken charges with hydrogens summed into heavy atoms:
              1
     1  Ti   0.851448
     2  O   -0.527109
     3  O   -0.527124
     4  O    0.202785
 Sum of Mulliken charges with hydrogens summed into heavy atoms =   0.00000
 Electronic spatial extent (au):  <R**2>=            364.4041
 Charge=              0.0000 electrons
 Dipole moment (field-independent basis, Debye):
    X=             -0.0005    Y=             -5.4483    Z=             -3.8786  Tot=              6.6879
 Orbital energies and kinetic energies (alpha):
                                 1                 2
   1         O               -19.250287         29.117115
   2         O               -19.073520         29.125925
   3         O               -19.073505         29.126807
   4         O                -2.439886          1.486122
   5         O                -1.485309          2.328134
   6         O                -1.482430          2.382575
   7         O                -1.475453          2.410938
   8         O                -1.122237          2.643720
   9         O                -0.834715          3.031943
  10         O                -0.817171          3.162267
  11         O                -0.637201          1.845874
  12         O                -0.515849          2.168559
  13         O                -0.434716          2.288627
  14         O                -0.315857          2.317935
  15         O                -0.304262          2.726173
  16         O                -0.294336          2.275399
  17         O                -0.277493          2.179296
  18         O                -0.269618          2.504293
  19         O                -0.233392          2.362395
  20         V                -0.073384          1.064826
  21         V                -0.047360          2.179121
  22         V                -0.032377          2.125177
  23         V                 0.014198          2.776155
  24         V                 0.014565          1.723166
  25         V                 0.016838          1.092907
  26         V                 0.023924          1.648353
  27         V                 0.042109          0.560023
  28         V                 0.044895          1.704635
  29         V                 0.074644          2.362504
  30         V                 0.096299          1.180985
  31         V                 0.097226          0.951592
  32         V                 0.119734          0.475170
  33         V                 0.141306          0.470634
  34         V                 0.149832          1.033997
  35         V                 0.154475          0.905699
  36         V                 0.159705          1.166648
  37         V                 0.170115          1.013633
  38         V                 0.240080          1.814368
  39         V                 0.252073          1.244219
  40         V                 0.262104          1.472526
  41         V                 0.532571          2.250394
  42         V                 0.533299          2.440592
  43         V                 0.546069          2.513406
  44         V                 0.573969          2.315055
  45         V                 0.592236          2.440385
  46         V                 0.776017          2.251173
  47         V                 0.817068          2.465997
  48         V                 0.892159          3.227729
  49         V                 0.947464          2.978783
  50         V                 0.968795          3.026223
  51         V                 1.010625          3.438316
  52         V                 1.023283          3.146089
  53         V                 1.073817          3.497342
  54         V                 1.113142          3.430343
  55         V                 1.120398          3.355942
  56         V                 1.136164          3.303873
  57         V                 1.203343          3.423123
  58         V                 1.261775          2.522643
  59         V                 1.292616          3.252018
  60         V                 1.342357          2.692475
  61         V                 1.349600          2.372708
  62         V                 1.356830          3.018951
  63         V                 1.364013          2.751753
  64         V                 1.369335          2.394431
  65         V                 1.427396          3.063022
  66         V                 1.471619          3.056018
  67         V                 1.506158          3.116897
  68         V                 1.650078          3.032024
  69         V                 1.699851          3.275300
  70         V                 1.740955          3.273636
  71         V                 1.802160          3.787806
  72         V                 1.887965          2.870731
  73         V                 1.942181          3.407016
  74         V                 1.963109          3.178638
  75         V                 1.986696          3.762880
  76         V                 2.004032          3.269188
  77         V                 2.062429          3.629166
  78         V                 2.191170          3.170649
  79         V                 2.278006          3.900066
  80         V                 2.302564          3.605154
  81         V                 2.344876          3.634074
  82         V                 2.408457          3.562914
  83         V                 2.439539          3.773087
  84         V                 2.486072          3.705886
  85         V                 2.587236          3.600903
  86         V                 2.601502          3.699016
  87         V                 2.765960          4.765941
  88         V                 2.929130          4.489697
  89         V                 2.953510          4.402401
  90         V                 3.335841          5.400670
  91         V                 3.476599          5.573623
  92         V                24.363350         22.546857
  93         V                24.537390         22.683486
  94         V                24.754655         22.881695
  95         V                35.601388         11.843083
 Total kinetic energy from orbitals= 2.509681944581D+02

 Test job not archived.
 1\1\GINC-TITAN10\FOpt\RB3PW91\GenECP\H2O3Ti1\OHNISHI\26-Oct-2016\0\\#T
  B3PW91/GenECP SCFCon=7 SCFCyc=250 GFInput GFOldPrint Opt=(MaxCyc=60,C
 alcFC) NoSym Integral=(Grid=UltraFine) Pop=Regular Pseudo=Read IOp(1/3
 3=0,2/11=1,3/27=8,6/7=3)\\TiO2\\0,1\Ti,0.0000449909,0.1992140965,-0.56
 41456914\O,1.3725518283,0.6250933306,0.2382327614\O,-1.3723882919,0.62
 52907625,0.2382525614\O,-0.0001789315,-1.9242226881,-0.3234065758\H,-0
 .778040827,-2.1521434233,0.2055323305\H,0.7776272312,-2.1523280783,0.2
 05534614\\Version=AM64L-G09RevC.01\HF=-285.2239851\RMSD=8.005e-08\RMSF
 =6.397e-06\Dipole=-0.0001881,-2.1435185,-1.525972\Quadrupole=-7.300489
 2,4.4185666,2.8819225,0.0008641,-0.0004594,-4.6933603\PG=C01 [X(H2O3Ti
 1)]\\@


 THE ENLIGHTENED ONE, BECAUSE HE SAW MANKIND DROWNING  
 IN THE GREAT SEA OF BIRTH, DEATH, AND SORROW, LONGED TO SAVE 
 THEM, FOR THIS HE WAS MOVED TO PITY.                         
 BECAUSE HE SAW MEN OF THE WORLD STRAYING IN FALSE PATHS, AND 
 NONE TO GUIDE THEM, FOR THIS HE WAS MOVED TO PITY.           
                     ..................                       
 BECAUSE HE SAW THE MEN OF THE WORLD PLOUGHING THEIR FIELDS,  
 SOWING THE SEED, TRAFFICKING, HUCKSTERING, BUYING, SELLING,  
 AND AT THE END WINNOWING NOTHING BUT BITTERNESS,             
 FOR THIS HE WAS MOVED TO PITY......                   
                   BUDAH'S PITY - UPSAKA SILA SUTRA           
 Job cpu time:  0 days  0 hours  1 minutes 54.6 seconds.
 File lengths (MBytes):  RWF=     11 Int=      0 D2E=      0 Chk=      2 Scr=      1
 Normal termination of Gaussian 09 at Wed Oct 26 16:54:36 2016.
real 119.92
user 103.50
sys 11.17
